/*--------------------------------*- C++ -*----------------------------------*\
| =========                 |                                                 |
| \\      /  F ield         | OpenFOAM: The Open Source CFD Toolbox           |
|  \\    /   O peration     | Version:  v1912                                 |
|   \\  /    A nd           | Website:  www.openfoam.com                      |
|    \\/     M anipulation  |                                                 |
\*---------------------------------------------------------------------------*/
FoamFile
{
    version     2.0;
    format      ascii;
    class       volScalarField;
    location    "9";
    object      p;
}
// * * * * * * * * * * * * * * * * * * * * * * * * * * * * * * * * * * * * * //

dimensions      [0 2 -2 0 0 0 0];


internalField   nonuniform List<scalar> 
400
(
6.09391e-06
-2.12261
-1.33124
1.86182
6.42753
11.3662
16.0837
20.3033
23.9752
27.1404
29.8312
32.0743
34.0447
35.9272
37.6842
39.1904
40.2561
40.5074
39.579
37.2964
2.1251
0.915998
1.89579
4.91695
9.10259
13.5725
17.829
21.6329
24.9436
27.8048
30.2425
32.2224
33.9165
35.5455
37.0353
38.2408
39.0247
39.0768
38.1502
36.4702
2.43554
2.49065
4.07685
7.28763
11.35
15.531
19.4425
22.9071
25.9046
28.4898
30.6577
32.3693
33.8058
35.2008
36.4988
37.5474
38.2721
38.4374
37.8511
36.9469
1.89485
3.02497
5.22146
8.71324
12.7896
16.8134
20.4853
23.6808
26.4053
28.7394
30.6474
32.112
33.35
34.5748
35.7299
36.6809
37.4065
37.7569
37.602
37.3504
0.851417
2.83221
5.5305
9.27071
13.4013
17.3465
20.8776
23.9122
26.466
28.6155
30.3228
31.63
32.7898
33.957
35.0397
35.9436
36.6834
37.1839
37.3769
37.5957
-0.221705
2.34179
5.3849
9.29391
13.4589
17.3406
20.7717
23.7036
26.1605
28.1989
29.8177
31.1175
32.3204
33.5032
34.5644
35.4569
36.2203
36.8301
37.2771
37.8466
-0.948093
1.96909
5.2342
9.224
13.3626
17.142
20.4592
23.3089
25.7221
27.718
29.3148
30.6474
31.8939
33.0862
34.149
35.0708
35.9063
36.6419
37.2898
38.0869
-1.16787
1.89534
5.27114
9.27168
13.3497
17.0107
20.2056
22.9641
25.3218
27.277
28.8655
30.2271
31.495
32.6896
33.7742
34.7566
35.678
36.5256
37.315
38.2315
-1.10981
1.98871
5.44067
9.42733
13.436
16.9791
20.0508
22.7067
24.9954
26.9184
28.5062
29.8839
31.1658
32.3761
33.5075
34.5583
35.5855
36.5429
37.394
38.3444
-1.26995
1.92812
5.50787
9.56562
13.5662
17.0419
20.0164
22.5877
24.822
26.7106
28.2893
29.6762
30.9755
32.2169
33.4148
34.5676
35.717
36.748
37.6399
38.5947
-1.82145
1.58811
5.36028
9.58462
13.6574
17.154
20.1234
22.6862
24.9027
26.7592
28.3091
29.6991
31.0302
32.3111
33.5629
34.8071
36.0602
37.1654
38.1293
39.1492
-2.47625
1.17345
5.15961
9.55714
13.73
17.3104
20.3663
23.0101
25.2828
27.139
28.648
30.0333
31.4063
32.7376
34.0257
35.3029
36.6049
37.7807
38.812
39.9776
-2.93203
0.917428
5.08637
9.64438
13.9382
17.6393
20.8133
23.573
25.9609
27.8495
29.3223
30.7033
32.1161
33.4997
34.8188
36.1081
37.3996
38.577
39.6307
40.8944
-2.89836
1.0149
5.29953
9.99591
14.4194
18.2553
21.553
24.4153
26.9108
28.8508
30.2946
31.6524
33.0889
34.5178
35.864
37.1606
38.4229
39.5475
40.5307
41.7578
-2.12635
1.61366
5.90194
10.6854
15.2225
19.1801
22.5714
25.4815
28.0131
29.9491
31.3156
32.5738
33.9791
35.4537
36.8593
38.2156
39.5027
40.591
41.4528
42.5315
-0.704965
2.54565
6.64433
11.3757
15.9293
19.9389
23.38
26.3101
28.8291
30.7457
32.0229
33.1546
34.5662
36.1672
37.7287
39.2357
40.6231
41.7096
42.4202
43.2637
0.779752
3.18313
6.88872
11.4504
15.9718
20.0148
23.5069
26.4884
29.0522
31.1076
32.576
33.8254
35.3406
37.0907
38.8287
40.503
42.002
43.0711
43.578
44.1037
1.57482
2.95485
6.21175
10.6288
15.2221
19.4415
23.1555
26.3609
29.111
31.3788
33.15
34.6633
36.3669
38.3043
40.2116
42.0108
43.5546
44.5334
44.8059
45.0134
0.830516
1.38512
4.51317
9.10975
14.0711
18.6832
22.7438
26.2326
29.1925
31.6416
33.5975
35.2778
37.1203
39.1876
41.235
43.1406
44.7143
45.6424
45.8877
46.0456
-3.15837
-2.01387
1.89641
7.19507
12.8539
18.0748
22.5997
26.4033
29.5379
32.0646
34.0655
35.8257
37.7324
39.8549
42.0261
44.0841
45.7872
46.8145
47.3168
48.1122
)
;

boundaryField
{
    movingWall
    {
        type            zeroGradient;
    }
    fixedWalls
    {
        type            zeroGradient;
    }
    frontAndBack
    {
        type            empty;
    }
}


// ************************************************************************* //
