/*--------------------------------*- C++ -*----------------------------------*\
| =========                 |                                                 |
| \\      /  F ield         | OpenFOAM: The Open Source CFD Toolbox           |
|  \\    /   O peration     | Version:  v1912                                 |
|   \\  /    A nd           | Website:  www.openfoam.com                      |
|    \\/     M anipulation  |                                                 |
\*---------------------------------------------------------------------------*/
FoamFile
{
    version     2.0;
    format      ascii;
    class       surfaceScalarField;
    location    "9";
    object      phi;
}
// * * * * * * * * * * * * * * * * * * * * * * * * * * * * * * * * * * * * * //

dimensions      [0 3 -1 0 0 0 0];
oriented        oriented;


internalField   nonuniform List<scalar> 
760
(
-2.60679e-05
2.60679e-05
-7.16691e-05
4.56012e-05
-0.000114749
4.30802e-05
-0.000150532
3.57831e-05
-0.000177921
2.73891e-05
-0.000197196
1.92741e-05
-0.000209342
1.21463e-05
-0.000215606
6.26403e-06
-0.000217097
1.49135e-06
-0.000214561
-2.53654e-06
-0.000208505
-6.05572e-06
-0.00019952
-8.98466e-06
-0.000187868
-1.16528e-05
-0.000172629
-1.52381e-05
-0.000152549
-2.00803e-05
-0.00012685
-2.56992e-05
-9.52796e-05
-3.15705e-05
-5.89132e-05
-3.63665e-05
-2.20176e-05
-3.68957e-05
-2.20176e-05
-3.06352e-05
5.67029e-05
-7.71528e-05
9.21188e-05
-0.000119224
8.5151e-05
-0.000153093
6.96528e-05
-0.000178026
5.23221e-05
-0.000194422
3.56702e-05
-0.000203445
2.11695e-05
-0.000206476
9.29428e-06
-0.00020476
-2.23902e-07
-0.000199191
-8.10569e-06
-0.000190586
-1.46605e-05
-0.000179434
-2.01369e-05
-0.000166041
-2.50458e-05
-0.000150385
-3.08942e-05
-0.000131713
-3.87522e-05
-0.000109471
-4.79419e-05
-8.32932e-05
-5.7748e-05
-5.32556e-05
-6.64042e-05
-2.12198e-05
-6.89315e-05
-4.32375e-05
-1.49283e-05
7.16312e-05
-3.88876e-05
0.000116078
-6.25677e-05
0.000108831
-8.36085e-05
9.06935e-05
-0.00010041
6.91237e-05
-0.000112248
4.75081e-05
-0.000119144
2.80655e-05
-0.000121603
1.17528e-05
-0.000120302
-1.52461e-06
-0.000115803
-1.26042e-05
-0.000108509
-2.19545e-05
-9.88138e-05
-2.98324e-05
-8.69309e-05
-3.69287e-05
-7.35951e-05
-4.423e-05
-5.95685e-05
-5.27789e-05
-4.54703e-05
-6.20402e-05
-3.1869e-05
-7.13493e-05
-1.90452e-05
-7.9228e-05
-6.85895e-06
-8.11179e-05
-5.00965e-05
-2.80959e-06
7.44408e-05
-8.8041e-06
0.000122073
-1.79029e-05
0.00011793
-2.92846e-05
0.000102075
-4.13618e-05
8.12008e-05
-5.26053e-05
5.87515e-05
-6.17723e-05
3.72326e-05
-6.79948e-05
1.79754e-05
-7.08619e-05
1.34236e-06
-7.04652e-05
-1.30011e-05
-6.66664e-05
-2.57531e-05
-5.9523e-05
-3.69756e-05
-4.94508e-05
-4.7001e-05
-3.7688e-05
-5.59929e-05
-2.60249e-05
-6.4442e-05
-1.5828e-05
-7.22371e-05
-8.18789e-06
-7.89893e-05
-3.51894e-06
-8.3897e-05
-8.43446e-07
-8.37934e-05
-5.09399e-05
6.43436e-06
6.80065e-05
1.42959e-05
0.000114211
1.79075e-05
0.000114319
1.69465e-05
0.000103036
1.21899e-05
8.59574e-05
4.83998e-06
6.61015e-05
-3.60998e-06
4.56824e-05
-1.16489e-05
2.60142e-05
-1.79967e-05
7.69018e-06
-2.18956e-05
-9.10203e-06
-2.26695e-05
-2.49792e-05
-2.00918e-05
-3.95534e-05
-1.50258e-05
-5.2067e-05
-8.83142e-06
-6.21872e-05
-3.05328e-06
-7.022e-05
1.14606e-06
-7.64364e-05
2.96904e-06
-8.08124e-05
2.35518e-06
-8.32832e-05
7.32557e-07
-8.21707e-05
-5.02072e-05
1.2565e-05
5.54416e-05
3.00519e-05
9.67242e-05
4.37774e-05
0.000100593
5.26868e-05
9.4127e-05
5.68218e-05
8.18224e-05
5.67555e-05
6.61676e-05
5.35474e-05
4.88906e-05
4.85539e-05
3.10077e-05
4.31319e-05
1.31122e-05
3.83018e-05
-4.27201e-06
3.43963e-05
-2.10737e-05
3.13104e-05
-3.64674e-05
2.85025e-05
-4.92591e-05
2.54828e-05
-5.91674e-05
2.18956e-05
-6.66329e-05
1.75018e-05
-7.20427e-05
1.22754e-05
-7.55861e-05
6.68071e-06
-7.76884e-05
2.02147e-06
-7.75113e-05
-4.81857e-05
1.48762e-05
4.05655e-05
3.62518e-05
7.53489e-05
5.4804e-05
8.20407e-05
6.94132e-05
7.95178e-05
7.98473e-05
7.13885e-05
8.61142e-05
5.99008e-05
8.85312e-05
4.64735e-05
8.76636e-05
3.18753e-05
8.42584e-05
1.65174e-05
7.91711e-05
8.15283e-07
7.27598e-05
-1.46624e-05
6.50779e-05
-2.87855e-05
5.62543e-05
-4.04355e-05
4.66468e-05
-4.95599e-05
3.67521e-05
-5.67382e-05
2.69978e-05
-6.22883e-05
1.77592e-05
-6.63474e-05
9.53174e-06
-6.94609e-05
3.15768e-06
-7.11371e-05
-4.5028e-05
1.30608e-05
2.75046e-05
3.30037e-05
5.54061e-05
5.16776e-05
6.33667e-05
6.78532e-05
6.33421e-05
8.09005e-05
5.83412e-05
9.03097e-05
5.04916e-05
9.57954e-05
4.09878e-05
9.73291e-05
3.03415e-05
9.5162e-05
1.86846e-05
8.98459e-05
6.13142e-06
8.17861e-05
-6.60254e-06
7.14e-05
-1.83994e-05
5.94598e-05
-2.84954e-05
4.69208e-05
-3.7021e-05
3.47759e-05
-4.45931e-05
2.38394e-05
-5.13519e-05
1.47769e-05
-5.72847e-05
7.87719e-06
-6.25611e-05
2.82659e-06
-6.60864e-05
-4.22014e-05
9.2296e-06
1.8275e-05
2.54561e-05
3.91797e-05
4.17043e-05
4.71185e-05
5.7044e-05
4.80022e-05
7.04738e-05
4.49114e-05
8.11526e-05
3.98129e-05
8.83886e-05
3.37517e-05
9.17875e-05
2.69426e-05
9.11536e-05
1.93186e-05
8.64022e-05
1.08829e-05
7.79301e-05
1.86954e-06
6.66297e-05
-7.099e-06
5.36983e-05
-1.5564e-05
4.03231e-05
-2.36457e-05
2.7634e-05
-3.19041e-05
1.69184e-05
-4.06363e-05
8.95644e-06
-4.93227e-05
4.00256e-06
-5.76073e-05
1.32813e-06
-6.34119e-05
-4.08733e-05
7.91321e-06
1.03617e-05
2.25142e-05
2.45786e-05
3.71185e-05
3.25143e-05
5.08974e-05
3.42232e-05
6.31154e-05
3.26935e-05
7.3268e-05
2.96602e-05
8.09333e-05
2.60864e-05
8.55401e-05
2.23359e-05
8.64029e-05
1.84558e-05
8.29767e-05
1.43091e-05
7.53873e-05
9.45894e-06
6.47173e-05
3.57101e-06
5.24675e-05
-3.31418e-06
3.97782e-05
-1.09565e-05
2.74232e-05
-1.95491e-05
1.6346e-05
-2.95591e-05
7.72015e-06
-4.06968e-05
2.54379e-06
-5.24309e-05
3.35405e-07
-6.12034e-05
-4.05379e-05
1.06476e-05
-2.85939e-07
2.79274e-05
7.29867e-06
4.40648e-05
1.63769e-05
5.78597e-05
2.04284e-05
6.91439e-05
2.14093e-05
7.80072e-05
2.07969e-05
8.45245e-05
1.95692e-05
8.85075e-05
1.83529e-05
8.95303e-05
1.7433e-05
8.69056e-05
1.69338e-05
8.03665e-05
1.5998e-05
7.07569e-05
1.31806e-05
5.94873e-05
7.95542e-06
4.77134e-05
8.17422e-07
3.59888e-05
-7.82449e-06
2.45624e-05
-1.81328e-05
1.42689e-05
-3.04033e-05
6.42687e-06
-4.45888e-05
1.53978e-06
-5.63162e-05
-3.89981e-05
1.46679e-05
-1.49538e-05
3.67369e-05
-1.47705e-05
5.63034e-05
-3.18955e-06
7.21282e-05
4.60354e-06
8.42388e-05
9.29859e-06
9.28937e-05
1.2142e-05
9.83558e-05
1.4107e-05
0.000100938
1.5771e-05
0.000100959
1.7412e-05
9.81109e-05
1.97815e-05
9.20144e-05
2.20945e-05
8.3067e-05
2.21279e-05
7.21528e-05
1.88696e-05
6.02791e-05
1.26911e-05
4.80967e-05
4.35791e-06
3.59551e-05
-5.99121e-06
2.40498e-05
-1.8498e-05
1.30044e-05
-3.35434e-05
4.10028e-06
-4.74121e-05
-3.48979e-05
1.84441e-05
-3.33979e-05
4.48576e-05
-4.1184e-05
6.774e-05
-2.60719e-05
8.58573e-05
-1.35138e-05
9.91655e-05
-4.00959e-06
0.000108022
3.28526e-06
0.000112993
9.13584e-06
0.000114653
1.41117e-05
0.000113676
1.83882e-05
0.000110501
2.29569e-05
0.000104902
2.76932e-05
9.67025e-05
3.03277e-05
8.6205e-05
2.93671e-05
7.40026e-05
2.48934e-05
6.06787e-05
1.76818e-05
4.68027e-05
7.88474e-06
3.28429e-05
-4.53811e-06
1.90999e-05
-1.98004e-05
6.59058e-06
-3.49028e-05
-2.83073e-05
2.06141e-05
-5.4012e-05
4.91102e-05
-6.96801e-05
7.33048e-05
-5.02666e-05
9.19197e-05
-3.21288e-05
0.000104886
-1.6976e-05
0.000112771
-4.59956e-06
0.000116501
5.40562e-06
0.000117043
1.35695e-05
0.000115286
2.0145e-05
0.000112069
2.61742e-05
0.000107601
3.21609e-05
0.000101293
3.66366e-05
9.26818e-05
3.79778e-05
8.17838e-05
3.57914e-05
6.88048e-05
3.06609e-05
5.4208e-05
2.24815e-05
3.86916e-05
1.09783e-05
2.29481e-05
-4.05694e-06
8.20366e-06
-2.01584e-05
-2.01038e-05
1.86086e-05
-7.26206e-05
4.39808e-05
-9.50524e-05
6.46475e-05
-7.09334e-05
7.9178e-05
-4.66593e-05
8.75938e-05
-2.53918e-05
9.08301e-05
-7.83591e-06
9.03711e-05
5.86452e-06
8.77339e-05
1.62067e-05
8.40768e-05
2.38021e-05
8.08929e-05
2.93581e-05
7.88575e-05
3.41963e-05
7.71569e-05
3.83373e-05
7.46016e-05
4.05331e-05
6.99445e-05
4.04484e-05
6.24179e-05
3.81875e-05
5.1759e-05
3.31403e-05
3.83733e-05
2.4364e-05
2.32849e-05
1.10313e-05
8.44608e-06
-5.31948e-06
-1.16577e-05
1.0869e-05
-8.34895e-05
2.59361e-05
-0.00011012
3.7156e-05
-8.21532e-05
4.35829e-05
-5.30862e-05
4.5512e-05
-2.7321e-05
4.38674e-05
-6.1913e-06
3.99333e-05
9.79856e-06
3.51235e-05
2.10165e-05
3.07116e-05
2.82141e-05
2.85845e-05
3.14852e-05
3.04686e-05
3.23121e-05
3.57187e-05
3.30872e-05
4.16518e-05
3.46001e-05
4.5559e-05
3.65413e-05
4.58592e-05
3.78873e-05
4.1641e-05
3.73584e-05
3.28746e-05
3.31305e-05
2.06203e-05
2.32855e-05
7.49017e-06
7.81068e-06
-4.16749e-06
-1.34272e-06
-8.21468e-05
-1.39621e-06
-0.000110066
-1.60171e-06
-8.19476e-05
-2.45445e-06
-5.22335e-05
-3.39427e-06
-2.63812e-05
-3.88951e-06
-5.69602e-06
-3.52582e-06
9.43496e-06
-2.08822e-06
1.9579e-05
4.26553e-07
2.56993e-05
3.88079e-06
2.80309e-05
8.94573e-06
2.72472e-05
1.59868e-05
2.60461e-05
2.3724e-05
2.68628e-05
3.02199e-05
3.00454e-05
3.37875e-05
3.43198e-05
3.31498e-05
3.79959e-05
2.7665e-05
3.86153e-05
1.79356e-05
3.3015e-05
6.61169e-06
1.91345e-05
2.44418e-06
-1.81244e-05
-6.40224e-05
-3.84331e-05
-8.97573e-05
-5.15283e-05
-6.88524e-05
-5.80447e-05
-4.57171e-05
-5.85691e-05
-2.58567e-05
-5.42841e-05
-9.98095e-06
-4.67381e-05
1.88895e-06
-3.73754e-05
1.02163e-05
-2.73398e-05
1.56638e-05
-1.77517e-05
1.84429e-05
-9.53792e-06
1.90334e-05
-2.49825e-06
1.90065e-05
3.76608e-06
2.05986e-05
8.99294e-06
2.48184e-05
1.27785e-05
3.05343e-05
1.44555e-05
3.63189e-05
1.32601e-05
3.98107e-05
9.04672e-06
3.72283e-05
3.33224e-06
2.48491e-05
5.77651e-06
-3.91036e-05
-2.49188e-05
-8.44591e-05
-4.44019e-05
-0.000116093
-3.72182e-05
-0.000134869
-2.69411e-05
-0.000142946
-1.77797e-05
-0.000142702
-1.02245e-05
-0.000136618
-4.19517e-06
-0.000126916
5.14444e-07
-0.000115382
4.12931e-06
-0.000103596
6.6569e-06
-9.27193e-05
8.15655e-06
-8.28608e-05
9.14786e-06
-7.33795e-05
1.11174e-05
-6.3354e-05
1.4793e-05
-5.21185e-05
1.92987e-05
-3.95953e-05
2.37957e-05
-2.65244e-05
2.67398e-05
-1.46458e-05
2.53498e-05
-5.87777e-06
1.60809e-05
-1.01251e-07
-2.49187e-05
-6.93205e-05
-0.000106539
-0.00013348
-0.000151259
-0.000161484
-0.000165679
-0.000165165
-0.000161035
-0.000154378
-0.000146222
-0.000137074
-0.000125957
-0.000111164
-9.18651e-05
-6.80693e-05
-4.13296e-05
-1.59797e-05
1.01263e-07
)
;

boundaryField
{
    movingWall
    {
        type            calculated;
        value           uniform 0;
    }
    fixedWalls
    {
        type            calculated;
        value           uniform 0;
    }
    frontAndBack
    {
        type            empty;
        value           nonuniform 0();
    }
}


// ************************************************************************* //
