/*--------------------------------*- C++ -*----------------------------------*\
| =========                 |                                                 |
| \\      /  F ield         | OpenFOAM: The Open Source CFD Toolbox           |
|  \\    /   O peration     | Version:  v1912                                 |
|   \\  /    A nd           | Website:  www.openfoam.com                      |
|    \\/     M anipulation  |                                                 |
\*---------------------------------------------------------------------------*/
FoamFile
{
    version     2.0;
    format      ascii;
    class       volVectorField;
    location    "9";
    object      U;
}
// * * * * * * * * * * * * * * * * * * * * * * * * * * * * * * * * * * * * * //

dimensions      [0 1 -1 0 0 0 0];


internalField   nonuniform List<vector> 
400
(
(-0.300903 0.339378 0)
(-0.962976 0.559178 0)
(-1.87466 0.529305 0)
(-2.66741 0.447795 0)
(-3.31124 0.35264 0)
(-3.78175 0.260253 0)
(-4.09555 0.178446 0)
(-4.27651 0.109885 0)
(-4.34947 0.0529801 0)
(-4.33575 0.00386729 0)
(-4.2477 -0.0400087 0)
(-4.09908 -0.0776424 0)
(-3.88865 -0.11447 0)
(-3.62459 -0.164417 0)
(-3.27565 -0.229767 0)
(-2.81854 -0.305772 0)
(-2.23953 -0.385101 0)
(-1.55452 -0.449177 0)
(-0.791301 -0.457821 0)
(-0.242826 -0.280778 0)
(-0.310275 0.875468 0)
(-1.08961 1.48394 0)
(-1.98265 1.38894 0)
(-2.73937 1.14542 0)
(-3.34111 0.871664 0)
(-3.75671 0.609206 0)
(-4.00954 0.380851 0)
(-4.12672 0.193833 0)
(-4.13445 0.0435564 0)
(-4.05722 -0.0812871 0)
(-3.90894 -0.186968 0)
(-3.72213 -0.276125 0)
(-3.46492 -0.357221 0)
(-3.17351 -0.461225 0)
(-2.83552 -0.603467 0)
(-2.42673 -0.771243 0)
(-1.93748 -0.950056 0)
(-1.38122 -1.10426 0)
(-0.757523 -1.13942 0)
(-0.206122 -0.692989 0)
(-0.124981 1.3468 0)
(-0.551901 2.17825 0)
(-1.00646 2.0184 0)
(-1.45512 1.65632 0)
(-1.85124 1.24256 0)
(-2.1453 0.840759 0)
(-2.33562 0.489058 0)
(-2.42918 0.200909 0)
(-2.43773 -0.0294652 0)
(-2.37408 -0.219921 0)
(-2.25597 -0.377558 0)
(-2.09362 -0.508726 0)
(-1.87092 -0.626535 0)
(-1.60361 -0.759056 0)
(-1.33284 -0.930393 0)
(-1.04642 -1.12671 0)
(-0.761146 -1.33262 0)
(-0.504283 -1.51244 0)
(-0.278109 -1.5635 0)
(-0.0521395 -0.973516 0)
(0.0094272 1.50216 0)
(-0.126875 2.44842 0)
(-0.23725 2.32556 0)
(-0.440623 1.96949 0)
(-0.696262 1.52594 0)
(-0.941804 1.06604 0)
(-1.15539 0.640362 0)
(-1.31561 0.273893 0)
(-1.40849 -0.0302445 0)
(-1.42373 -0.285218 0)
(-1.39356 -0.504299 0)
(-1.28536 -0.692173 0)
(-1.10799 -0.861998 0)
(-0.866934 -1.02447 0)
(-0.633449 -1.19632 0)
(-0.406723 -1.37002 0)
(-0.219065 -1.53407 0)
(-0.102422 -1.66401 0)
(-0.0587665 -1.67995 0)
(0.00919414 -1.02664 0)
(0.115106 1.45334 0)
(0.196179 2.41109 0)
(0.359166 2.37068 0)
(0.391848 2.09469 0)
(0.316411 1.70638 0)
(0.183567 1.27188 0)
(0.0149659 0.840282 0)
(-0.159612 0.439593 0)
(-0.310102 0.0802464 0)
(-0.407085 -0.238883 0)
(-0.470797 -0.533147 0)
(-0.450874 -0.798087 0)
(-0.362098 -1.02929 0)
(-0.233692 -1.22414 0)
(-0.114454 -1.38904 0)
(-0.00874438 -1.52622 0)
(0.0582881 -1.63189 0)
(0.0635966 -1.69772 0)
(0.013627 -1.67686 0)
(0.0266043 -1.01818 0)
(0.187606 1.24922 0)
(0.40947 2.13486 0)
(0.772898 2.1782 0)
(1.01074 2.00341 0)
(1.12451 1.71047 0)
(1.15686 1.35313 0)
(1.11594 0.97038 0)
(1.02498 0.586021 0)
(0.914571 0.213404 0)
(0.811101 -0.138848 0)
(0.715851 -0.476843 0)
(0.647986 -0.788193 0)
(0.600223 -1.05037 0)
(0.545191 -1.25593 0)
(0.476473 -1.41095 0)
(0.397214 -1.52286 0)
(0.304029 -1.5945 0)
(0.187348 -1.63071 0)
(0.0656673 -1.6093 0)
(0.0463531 -0.989399 0)
(0.222515 0.960709 0)
(0.491781 1.72401 0)
(0.938881 1.83525 0)
(1.28422 1.75077 0)
(1.51808 1.55035 0)
(1.68058 1.28039 0)
(1.76406 0.971769 0)
(1.77564 0.642189 0)
(1.73009 0.302206 0)
(1.63956 -0.0374535 0)
(1.52072 -0.368699 0)
(1.3807 -0.670719 0)
(1.22077 -0.919094 0)
(1.03313 -1.10986 0)
(0.833309 -1.25329 0)
(0.634059 -1.35728 0)
(0.446552 -1.42568 0)
(0.263208 -1.47214 0)
(0.106167 -1.48621 0)
(0.0631004 -0.934242 0)
(0.213386 0.672592 0)
(0.438727 1.29699 0)
(0.865094 1.44915 0)
(1.23199 1.43035 0)
(1.50737 1.30433 0)
(1.73053 1.11405 0)
(1.87998 0.885254 0)
(1.94992 0.631073 0)
(1.94328 0.356821 0)
(1.86157 0.0680797 0)
(1.72561 -0.219471 0)
(1.53937 -0.481934 0)
(1.31562 -0.70033 0)
(1.06458 -0.875581 0)
(0.811913 -1.01955 0)
(0.577139 -1.13646 0)
(0.377118 -1.23083 0)
(0.213201 -1.30955 0)
(0.0923391 -1.36142 0)
(0.0687805 -0.869708 0)
(0.169513 0.451643 0)
(0.330605 0.937724 0)
(0.678296 1.09849 0)
(1.01872 1.10994 0)
(1.28839 1.03209 0)
(1.53009 0.905802 0)
(1.7127 0.753153 0)
(1.82017 0.580114 0)
(1.85112 0.386797 0)
(1.79355 0.173936 0)
(1.65661 -0.0470923 0)
(1.45512 -0.256823 0)
(1.20893 -0.442807 0)
(0.939384 -0.608734 0)
(0.673682 -0.767464 0)
(0.428888 -0.92235 0)
(0.250295 -1.06537 0)
(0.109967 -1.19604 0)
(0.0391367 -1.28826 0)
(0.063348 -0.826148 0)
(0.158625 0.287851 0)
(0.292224 0.636803 0)
(0.603816 0.792583 0)
(0.910889 0.815677 0)
(1.1494 0.768683 0)
(1.37321 0.688949 0)
(1.55203 0.595794 0)
(1.68171 0.493657 0)
(1.74009 0.381046 0)
(1.7142 0.256341 0)
(1.59924 0.117407 0)
(1.41129 -0.0316523 0)
(1.17599 -0.184834 0)
(0.922032 -0.341847 0)
(0.669209 -0.511888 0)
(0.425666 -0.704143 0)
(0.234186 -0.906885 0)
(0.0759947 -1.10979 0)
(0.0146448 -1.25299 0)
(0.0476825 -0.816872 0)
(0.197511 0.112414 0)
(0.37208 0.334201 0)
(0.740906 0.498798 0)
(1.05426 0.549244 0)
(1.28171 0.53797 0)
(1.4809 0.49774 0)
(1.63297 0.448002 0)
(1.74478 0.399441 0)
(1.79598 0.355052 0)
(1.78258 0.312491 0)
(1.68663 0.257104 0)
(1.52324 0.170778 0)
(1.30664 0.0487951 0)
(1.07186 -0.0999807 0)
(0.835658 -0.273394 0)
(0.603095 -0.479166 0)
(0.387272 -0.720087 0)
(0.183542 -0.986411 0)
(0.0628516 -1.1924 0)
(0.0514142 -0.803493 0)
(0.237436 -0.138235 0)
(0.503459 -0.0551022 0)
(0.962734 0.146696 0)
(1.32248 0.259585 0)
(1.58067 0.310701 0)
(1.78496 0.32796 0)
(1.92499 0.331651 0)
(2.00711 0.33426 0)
(2.03245 0.342517 0)
(2.00264 0.364979 0)
(1.9112 0.382116 0)
(1.76411 0.355468 0)
(1.55995 0.269099 0)
(1.32623 0.13283 0)
(1.08343 -0.0399836 0)
(0.838742 -0.248349 0)
(0.606794 -0.498063 0)
(0.356389 -0.795835 0)
(0.149116 -1.05666 0)
(0.0784636 -0.747392 0)
(0.273533 -0.473207 0)
(0.625954 -0.545654 0)
(1.16539 -0.28213 0)
(1.57705 -0.0826637 0)
(1.87285 0.0547762 0)
(2.09017 0.152473 0)
(2.22513 0.228659 0)
(2.29253 0.294847 0)
(2.29956 0.355311 0)
(2.24372 0.428214 0)
(2.16104 0.503397 0)
(2.02922 0.532378 0)
(1.8417 0.489125 0)
(1.60812 0.37874 0)
(1.35039 0.218218 0)
(1.07527 0.0119278 0)
(0.802342 -0.240507 0)
(0.512035 -0.545238 0)
(0.234931 -0.836633 0)
(0.0990669 -0.64175 0)
(0.29012 -0.873624 0)
(0.693691 -1.10865 0)
(1.26931 -0.765417 0)
(1.69639 -0.461132 0)
(1.99512 -0.217225 0)
(2.1977 -0.0219194 0)
(2.30824 0.137497 0)
(2.34865 0.272198 0)
(2.34216 0.38576 0)
(2.26681 0.499141 0)
(2.19632 0.616079 0)
(2.09983 0.695047 0)
(1.95596 0.701547 0)
(1.75476 0.632538 0)
(1.51505 0.502942 0)
(1.23645 0.31484 0)
(0.936682 0.067179 0)
(0.611351 -0.241717 0)
(0.287516 -0.556348 0)
(0.109384 -0.488917 0)
(0.259054 -1.28237 0)
(0.625734 -1.66964 0)
(1.13671 -1.23285 0)
(1.48518 -0.807743 0)
(1.69781 -0.441928 0)
(1.80532 -0.139604 0)
(1.82399 0.101903 0)
(1.78614 0.292711 0)
(1.73434 0.441494 0)
(1.62803 0.567814 0)
(1.58437 0.689044 0)
(1.55692 0.78622 0)
(1.53335 0.82848 0)
(1.45737 0.805908 0)
(1.33942 0.727093 0)
(1.1582 0.586153 0)
(0.918163 0.372694 0)
(0.618243 0.0793804 0)
(0.291783 -0.251107 0)
(0.105581 -0.317488 0)
(0.167342 -1.59613 0)
(0.369934 -2.10125 0)
(0.67841 -1.57316 0)
(0.847767 -1.02809 0)
(0.914056 -0.544993 0)
(0.908212 -0.146827 0)
(0.844181 0.158302 0)
(0.748531 0.379018 0)
(0.667682 0.529268 0)
(0.56394 0.616065 0)
(0.551435 0.671611 0)
(0.642826 0.725061 0)
(0.791548 0.767954 0)
(0.886821 0.790582 0)
(0.936208 0.783021 0)
(0.901234 0.725851 0)
(0.772957 0.591418 0)
(0.545599 0.353832 0)
(0.254775 0.031229 0)
(0.0892052 -0.155538 0)
(0.0228733 -1.71002 0)
(-0.0350903 -2.2748 0)
(0.0013896 -1.69117 0)
(-0.0203988 -1.08057 0)
(-0.055621 -0.541135 0)
(-0.076495 -0.102959 0)
(-0.0810635 0.222127 0)
(-0.0644897 0.442201 0)
(-0.0139888 0.574912 0)
(0.0358254 0.623282 0)
(0.100227 0.610622 0)
(0.231363 0.594581 0)
(0.410128 0.613078 0)
(0.551662 0.667266 0)
(0.659675 0.729996 0)
(0.697175 0.768789 0)
(0.640992 0.737784 0)
(0.472034 0.584316 0)
(0.217338 0.287078 0)
(0.0716702 -0.00943844 0)
(-0.162351 -1.53814 0)
(-0.594416 -2.10466 0)
(-0.90634 -1.58329 0)
(-1.10677 -1.02054 0)
(-1.18884 -0.535187 0)
(-1.1481 -0.149097 0)
(-1.02344 0.133801 0)
(-0.848713 0.325358 0)
(-0.64511 0.443489 0)
(-0.447712 0.493513 0)
(-0.273105 0.486251 0)
(-0.128997 0.466387 0)
(0.0272606 0.486766 0)
(0.135166 0.563878 0)
(0.227992 0.672686 0)
(0.289733 0.779578 0)
(0.3027 0.83299 0)
(0.235111 0.757661 0)
(0.0969559 0.488947 0)
(0.0425057 0.104816 0)
(-0.394202 -0.945429 0)
(-1.27228 -1.46168 0)
(-2.04734 -1.17771 0)
(-2.54411 -0.824024 0)
(-2.81936 -0.515241 0)
(-2.89053 -0.264996 0)
(-2.81734 -0.0718657 0)
(-2.64954 0.0713676 0)
(-2.42808 0.173715 0)
(-2.18797 0.237541 0)
(-1.96437 0.268433 0)
(-1.76154 0.286289 0)
(-1.55531 0.330442 0)
(-1.37036 0.422688 0)
(-1.15894 0.542068 0)
(-0.917788 0.66403 0)
(-0.651768 0.745406 0)
(-0.405616 0.712063 0)
(-0.207384 0.480459 0)
(-0.0248257 0.0844965 0)
(-0.153371 -0.354287 0)
(-0.917818 -0.551893 0)
(-1.79175 -0.460125 0)
(-2.42735 -0.345309 0)
(-2.88159 -0.244131 0)
(-3.15991 -0.159752 0)
(-3.29911 -0.0901729 0)
(-3.3303 -0.0329453 0)
(-3.27863 0.0137483 0)
(-3.16569 0.0495334 0)
(-3.01925 0.0746895 0)
(-2.84293 0.0958624 0)
(-2.64247 0.129959 0)
(-2.39005 0.184014 0)
(-2.05071 0.249083 0)
(-1.61475 0.315263 0)
(-1.09489 0.362239 0)
(-0.563018 0.35315 0)
(-0.110761 0.243098 0)
(0.159492 0.0410111 0)
)
;

boundaryField
{
    movingWall
    {
        type            fixedValue;
        value           uniform (1 0 0);
    }
    fixedWalls
    {
        type            noSlip;
    }
    frontAndBack
    {
        type            empty;
    }
}


// ************************************************************************* //
