/*--------------------------------*- C++ -*----------------------------------*\
| =========                 |                                                 |
| \\      /  F ield         | OpenFOAM: The Open Source CFD Toolbox           |
|  \\    /   O peration     | Version:  2206                                  |
|   \\  /    A nd           | Website:  www.openfoam.com                      |
|    \\/     M anipulation  |                                                 |
\*---------------------------------------------------------------------------*/
FoamFile
{
    version     2.0;
    format      ascii;
    arch        "LSB;label=32;scalar=64";
    class       volScalarField;
    location    "0";
    object      thickness;
}
// * * * * * * * * * * * * * * * * * * * * * * * * * * * * * * * * * * * * * //

dimensions      [0 0 0 0 0 0 0];

internalField   uniform 0;

boundaryField
{
    defaultFaces
    {
        type            empty;
    }
    inlet
    {
        type            fixedValue;
        value           uniform 0;
    }
    inlet2
    {
        type            fixedValue;
        value           uniform 0;
    }
    outlet
    {
        type            fixedValue;
        value           uniform 0;
    }
    walls
    {
        type            fixedValue;
        value           nonuniform List<scalar> 
8834
(
0
0
0
0
0
0
0
0
0
0
0
0
0
0
0
0
0
0
0
0
0
0
0
0
0
0
0
0
0
0
0
0
0
0
0
0
0
0
0
0
0
0
0
0
0
0
0
0
0
0
0
0
0
0
0
0
0
0
0
0
0
0
0
0
0
0
0
0
0
0
0
0
0
0
0
0
0
0
0
0
0
0
0
0
0
0
0
0
0
0
0
0
0
0
0
0
0
0
0
0
0
0
0
0
0
0
0
0
0
0
0
0
0
0
0
0
0
0
0
0
0
0
0
0
0
0
0
0
0
0
0
0
0
0
0
0
0
0
0
0
0
0
0
0
0
0
0
0
0
0
0
0
0
0
0
0
0
0
0
0
0
0
0
0
0
0
0
0
0
0
0
0
0
0
0
0
0
0
0
0
0
0
0
0
0
0
0
0
0
0
0
0
0
0
0
0
0
0
0
0
0
0
0
0
0
0
0
0
0
0
0
0
0
0
0
0
0
0
0
0
0
0
0
0
0
0
0
0
0
0
0
0
0
0
0
0
0
0
0
0
0
0
0
0
0
0
0
0
0
0
0
0
0
0
0
0
0
0
0
0
0
0
0
0
0
0
0
0
0
0
0
0
0
0
0
0
0
0
0
0
0
0
0
0
0
0
0
0
0
0
0
0
0
0
0
0
0
0
0
0
0
0
0
0
0
0
0
0
0
0
0
0
0
0
0
0
0
0
0
0
0
0
0
0
0
0
0
0
0
0
0
0
0
0
0
0
0
0
0
0
0
0
0
0
0
0
0
0
0
0
0
0
0
0
0
0
0
0
0
0
0
0
0
0
0
0
0
0
0
0
0
0
0
0
0
0
0
0
0
0
0
0
0
0
0
0
0
0
0
0
0
0
0
0
0
0
0
0
0
0
0
0
0
0
0
0
0
0
0
0
0
0
0
0
0
0
0
0
0
0
0
0
0
0
0
0
0
0
0
0
0
0
0
0
0
0
0
0
0
0
0
0
0
0
0
0
0
0
0
0
0
0
0
0
0
0
0
0
0
0
0
0
0
0
0
0
0
0
0
0
0
0
0
0
0
0
0
0
0
0
0
0
0
0
0
0
0
0
0
0
0
0
0
0
0
0
0
0
0
0
0
0
0
0
0
0
0
0
0
0
0
0
0
0
0
0
0
0
0
0
0
0
0
0
0
0
0
0
0
0
0
0
0
0
0
0
0
0
0
0
0
0
0
0
0
0
0
0
0
0
0
0
0
0
0
0
0
0
0
0
0
0
0
0
0
0
0
0
0
0
0
0
0
0
0
0
0
0
0
0
0
0
0
0
0
0
0
0
0
0
0
0
0
0
0
0
0
0
0
0
0
0
0
0
0
0
0
0
0
0
0
0
0
0
0
0
0
0
0
0
0
0
0
0
0
0
0
0
0
0
0
0
0
0
0
0
0
0
0
0
0
0
0
0
0
0
0
0
0
0
0
0
0
0
0
0
0
0
0
0
0
0
0
0
0
0
0
0
0
0
0
0
0
0
0
0
0
0
0
0
0
0
0
0
0
0
0
0
0
0
0
0
0
0
0
0
0
0
0
0
0
0
0
0
0
0
0
0
0
0
0
0
0
0
0
0
0
0
0
0
0
0
0
0
0
0
0
0
0
0
0
0
0
0
0
0
0
0
0
0
0
0
0
0
0
0
0
0
0
0
0
0
0
0
0
0
0
0
0
0
0
0
0
0
0
0
0
0
0
0
0
0
0
0
0
0
0
0
0
0
0
0
0
0
0
0
0
0
0
0
0
0
0
0
0
0
0
0
0
0
0
0
0
0
0
0
0
0
0
0
0
0
0
0
0
0
0
0
0
0
0
0
0
0
0
0
0
0
0
0
0
0
0
0
0
0
0
0
0
0
0
0
0
0
0
0
0
0
0
0
0
0
0
0
0
0
0
0
0.00176651
0.0128811
0.0143682
0.00313485
0.014434
0.0143681
0.0144474
0.0125526
0.00176651
0.0128811
0.00755982
0.0139387
0.0142136
0.0144348
0.00755982
0.0139387
0.00895192
0.0144356
0.014434
0.0136048
0.0136022
0.0136139
0.014445
0.0143265
0.0144421
0.0133867
0.0144431
0.0144404
0.0129703
0.00825426
0.0143535
0.00299996
0.0142959
0.0144502
0.014302
0.0143089
0.0144503
0.0142951
0.0537729
0.0558166
0.0578247
0.0544922
0.0578247
0.011195
0.0155192
0.0113274
0.0096775
0.0144508
0.0074507
0.0144525
0.00374443
0.0287687
0.0118976
0.0265739
0.021339
0.0228743
0.0486458
0.0360776
0.0146987
0.0159587
0.0310096
0.0384784
0.0457296
0.0303985
0.0333431
0.0432388
0.031012
0.0337303
0.0393095
0.0144193
0.0568205
0.0547187
0.0507948
0.0508239
0.0538911
0.0442391
0.0564249
0.02716
0.0271243
0.0555835
0.0480863
0.0550014
0.0506476
0.057794
0.0576789
0.0574123
0.0566244
0.0336451
0.0577744
0.0125171
0.0577276
0.0577263
0.0576602
0.0573921
0.0578244
0.0578226
0.0578167
0.0569468
0.0350617
0.0578242
0.0144556
0.0138153
0.0127969
0.00241034
0.0578236
0.0578232
0.0578093
0.0578157
0.0578244
0.0578247
0.0578246
0.0569818
0.0578247
0.0334241
0.0578247
0.0144484
0.0144496
0.0144386
0.0144559
0.0578247
0.0460558
0.0577984
0.0578246
0.0578246
0.0578247
0.0578247
0.0574939
0.0469138
0.0578247
0.0197446
0.0228751
0.0578247
0.053264
0.0578247
0.0578154
0.0578247
0.0578247
0.0578247
0.0578247
0.0578012
0.0578247
0.0465789
0.0466726
0.0476182
0.0578247
0.0578243
0.0578247
0.0578247
0.0578221
0.0578247
0.0576799
0.0578247
0.0578247
0.056559
0.0578247
0.0578247
0.0578247
0.0578247
0.0578247
0.0578247
0.057823
0.0578247
0.0578247
0.0578246
0.0576085
0.0578224
0.0578231
0.0576154
0.0578088
0.0578246
0.0578246
0.0578236
0.0577972
0.0578176
0.055965
0.0578081
0.0577489
0.0451362
0.0422905
0.0575803
0.0578207
0.0570177
0.0478545
0.0181558
0.0519795
0.0555701
0.0471773
0.0193957
0.0570693
0.0564137
0.0445145
0.0411225
0.0483214
0.0389822
0.0184832
0.00962401
0.00698576
0.0292866
0.0410225
0.00788964
0.00392885
0.00702642
0.00326933
0.00342313
0.0145268
0.0144539
0.0144539
0.00291699
0.0167683
0.0150818
0.0159167
0.0135303
0.0284535
0.0259542
0.022868
0.0209169
0.0443783
0.0144042
0.0511591
0.0554763
0.0137796
0.0208372
0.0288005
0.0388468
0.041928
0.0127665
0.0544327
0.0534161
0.0466386
0.04761
0.0474044
0.0487742
0.0540432
0.0444592
0.0430189
0.0340676
0.0459407
0.0563501
0.0560074
0.0489164
0.0552033
0.0337351
0.0353493
0.0288892
0.0241005
0.0520317
0.0493171
0.0441351
0.0538995
0.0343531
0.0175291
0.0249864
0.0408866
0.0335245
0.0445968
0.0546653
0.0151269
0.0422579
0.037421
0.0333685
0.0487348
0.055643
0.00579119
0.0188998
0.0430211
0.0347368
0.0282587
0.0385879
0.0498786
0.00218004
0.0277301
0.0313105
0.0205123
0.00332901
0.0289934
0.0322033
0.0238505
0.00648237
0.0223011
0.0144403
0.0140902
0.0127753
0.0144424
0.0144132
0.0144131
0.0107107
0.0107416
0.0144424
0.0144411
0.0125181
0.0144478
0.0144496
0.00770154
0.0167913
0.0144472
0.0167911
0.00769987
0.014451
0.014451
0.0144555
0.0144561
0.0144553
0.0144561
0.0144561
0.0144561
0.0144409
0.0144409
0.0144562
0.0144562
0.0127732
0.0144434
0.0127755
0.0138627
0.0144401
0.0144434
0.0144511
0.0218643
0.0215793
0.00428417
0.0034688
0.00907935
0.0171108
0.0144407
0.0260347
0.0171179
0.0090788
0.0260353
0.0217799
0.00744765
0.00833978
0.00745832
0.00718265
0.0144511
0.0218643
0.0215793
0.0175028
0.00428417
0.0271259
0.0139238
0.0139233
0.0135785
0.00267486
0.0144531
0.014456
0.0132427
0.00109844
0.00829901
0.00308266
0.00829993
0.0144559
0.00337435
0.00110314
0.00979182
0.0144551
0.0144404
0.0142772
0.00337367
0.0121973
0.0115794
0.0129432
0.00907211
0.00648638
0.0238714
0.0144519
0.0144513
0.00648935
0.00907224
0.00646842
0.0121888
0.0158486
0.0133538
0.0135624
0.0113428
0.0220971
0.00631468
0.0144524
0.0238645
0.0144518
0.014451
0.00907173
0.012943
0.0144355
0.01444
0.0144343
0.0136607
0.0144344
0.0120201
0.00648789
0.0144531
0.014456
0.0132462
0.00109563
0.0144049
0.0144455
0.0135765
0.00267923
0.0144499
0.0143169
0.0144069
0.0022237
0.0125309
0.014435
0.0138368
0.00308311
0.002224
0.0144428
0.0144558
0.0144436
0.0121974
0.01158
0.0011031
0.00979124
0.0122881
0.0138024
0.014447
0.0143531
0.0135739
0.0135767
0.0144561
0.0144558
0.0136133
0.0129428
0.0144282
0.0129319
0.0136022
0.00516044
0.0140785
0.0146945
0.0143238
0.00578886
0.00442155
0.0144516
0.0144509
0.0147481
0.0144561
0.0123976
0.0147316
0.00993591
0.0119503
0.00193471
0.000973077
0.0107244
0.0144513
0.01445
0.0143591
0.00315544
0.0144535
0.0144471
0.00317349
0.00329459
0.0144558
0.0144562
0.014455
0.0144561
0.0144324
0.0127827
0.0143754
0.0144432
0.00601713
0.0144173
0.0144474
0.00601345
0.0144476
0.00601345
0.00887504
0.00862636
0.0123973
0.00601713
0.0144173
0.0144142
0.0144554
0.0144548
0.00172683
0.00172672
0.00120676
0.00315605
0.00120678
0.0144474
0.0144534
0.00317342
0.00329473
0.0144264
0.0144555
0.0144506
0.0144557
0.0144522
0.0144559
0.0135295
0.0135413
0.0124499
0.0144562
0.0144561
0.0144561
0.0144561
0.0144562
0.0144562
0.0144562
0.0144562
0.0144562
0.01444
0.0127781
0.0127782
0.0119544
0.0142994
0.00981336
0.0127824
0.0144402
0.014431
0.0144428
0.0063434
0.0146946
0.0144454
0.00775508
0.0119503
0.0019347
0.00441913
0.00993606
0.0147316
0.00633173
0.0119482
0.0144353
0.0140463
0.0160815
0.0150386
0.0140463
0.0160811
0.0150383
0.0144353
0.0144509
0.0147481
0.00633188
0.006485
0.0105921
0.00775508
0.00441916
0.00442157
0.00805969
0.0063434
0.0146946
0.0140785
0.0146945
0.0143238
0.00578886
0.00678287
0.00342339
0.013863
0.00782071
0.0035949
0.00932322
0.0144547
0.0144505
0.00342355
0.0138629
0.00280027
0.0138019
0.00348213
0.00360782
0.00560746
0.00393287
0.00848064
0.0137669
0.00890935
0.002497
0.0141131
0.0136999
0.00318881
0.00848149
0.0137525
0.00890984
0.00249705
0.0141076
0.0136994
0.00258921
0.0138387
0.0137363
0.00349165
0.00521262
0.00775916
0.0144454
0.0144402
0.0025895
0.0138381
0.0137349
0.00376277
0.00348371
0.01434
0.0140322
0.0142924
0.0135228
0.0144044
0.0135688
0.0144045
0.0135601
0.0113383
0.0113391
0.0144518
0.0114982
0.00480977
0.0147731
0.0144561
0.0144517
0.014773
0.0144561
0.0144561
0.0115181
0.00383812
0.0131292
0.00997075
0.00446124
0.0112739
0.0141425
0.00985337
0.00463405
0.0055657
0.0144492
0.01439
0.0144559
0.0114938
0.00477872
0.00997047
0.0144561
0.0144513
0.0144558
0.0144559
0.0147725
0.0144561
0.0144513
0.0147724
0.0144561
0.0144561
0.00996899
0.0115178
0.00383924
0.0140154
0.0143977
0.0144255
0.0144354
0.0144492
0.0115955
0.0142748
0.0142729
0.0137455
0.0142841
0.0136942
0.00713315
0.00661067
0.0144403
0.0144348
0.0119622
0.00813268
0.0144332
0.00863087
0.0142136
0.0144332
0.0144403
0.0119622
0.00813268
0.0142841
0.0136942
0.00713315
0.00661068
0.0115955
0.0137455
0.0144501
0.0144547
0.0144531
0.00348237
0.00360913
0.00560717
0.00393589
0.00113236
0.0144413
0.0144505
0.0144488
0.00782447
0.00359651
0.00932435
0.00113251
0.0144522
0.0144071
0.00318946
0.0144473
0.0144514
0.00376309
0.00348406
0.00349156
0.00521228
0.00775883
0.0141345
0.0135505
0.014442
0.0144562
0.0144562
0.0144561
0.0144561
0.0144562
0.0144562
0.0144562
0.0144561
0.0144561
0.014017
0.014293
0.0140089
0.014024
0.0140184
0.0129702
0.0144284
0.0144304
0.014014
0.0144558
0.0144549
0.0144554
0.0144559
0.0144511
0.0144556
0.0144559
0.0144511
0.0144556
0.0144138
0.0144334
0.0143343
0.0143777
0.014424
0.014299
0.0143772
0.014424
0.0142985
0.0144374
0.014453
0.0144372
0.0144343
0.014337
0.0144415
0.0144462
0.0144556
0.0144416
0.0144488
0.0124278
0.0138847
0.014453
0.0144536
0.0144544
0.0144561
0.014453
0.0144561
0.0144562
0.0144561
0.0144558
0.014033
0.0124239
0.0138839
0.0144561
0.0144562
0.0144561
0.0144557
0.0144083
0.0143515
0.0143737
0.0135524
0.0144561
0.0144562
0.0144559
0.0144562
0.0144555
0.014444
0.0144562
0.0144562
0.0144561
0.0144562
0.00759334
0.0138155
0.0213684
0.0226432
0.0295338
0.0334732
0.0330076
0.0435188
0.0451453
0.0289901
0.0299756
0.0451454
0.0435188
0.0342439
0.0334699
0.0226435
0.0295285
0.0317599
0.0138161
0.00768347
0.0213702
0.00759319
0.0269316
0.0330326
0.0264153
0.0399835
0.0351483
0.0203107
0.00497809
0.0381723
0.0144034
0.0337923
0.0464949
0.0498857
0.0433361
0.0530654
0.0526657
0.0557333
0.0562531
0.0303995
0.0291813
0.0515535
0.0562528
0.0557311
0.0485343
0.045703
0.0544056
0.0529946
0.0364888
0.0484297
0.0512707
0.0344667
0.0159588
0.0403411
0.0212673
0.0408745
0.0310538
0.0465217
0.0445649
0.0259607
0.0439405
0.0457992
0.0495376
0.045416
0.0542852
0.0527711
0.0226949
0.0483979
0.0425326
0.0138005
0.0367596
0.0381736
0.0377799
0.0558802
0.0506239
0.0571461
0.0573135
0.0568795
0.0575166
0.0574702
0.0577271
0.0577662
0.0572995
0.0577661
0.0577263
0.0563516
0.0576206
0.057486
0.0571041
0.0572566
0.0490672
0.05337
0.0552716
0.0518303
0.0563884
0.0537888
0.0569656
0.0562417
0.0570808
0.0574519
0.0562918
0.0576173
0.05748
0.0525787
0.0570487
0.0564305
0.0501015
0.0556569
0.0558804
0.0558304
0.0577583
0.0573908
0.0548863
0.0578074
0.0578124
0.0578155
0.0577941
0.0578187
0.0578212
0.0578178
0.0578234
0.0578241
0.0144552
0.0143293
0.0578111
0.0578241
0.0578233
0.0577678
0.057821
0.0578178
0.0577282
0.057812
0.0578124
0.0541981
0.0548886
0.0571017
0.057559
0.0577807
0.0578104
0.0578156
0.0576192
0.0577852
0.057814
0.0577679
0.0578214
0.057818
0.0575406
0.0578044
0.0577807
0.0573598
0.0574123
0.0577494
0.0577583
0.0577526
0.0578239
0.0578246
0.0578239
0.0578246
0.00964324
0.00971855
0.0128188
0.0578246
0.0578247
0.0578247
0.0070974
0.0139926
0.0578246
0.0578247
0.0578247
0.00858261
0.0578244
0.0578241
0.0578247
0.0578246
0.0578235
0.0578246
0.0578246
0.0548811
0.057174
0.0578203
0.0578242
0.0578238
0.0578246
0.057805
0.0578218
0.0578241
0.0578245
0.0578246
0.0578196
0.0578245
0.0578243
0.0578157
0.0578239
0.057824
0.0578239
0.0578246
0.0294358
0.0578247
0.0578247
0.0144471
0.0144525
0.0144535
0.0144562
0.0578247
0.0578247
0.0578247
0.0144332
0.0144562
0.014322
0.0144548
0.014283
0.0578247
0.0578247
0.0578247
0.0113646
0.0578247
0.0578247
0.0578247
0.0292792
0.0578247
0.0578247
0.0578247
0.054168
0.0486479
0.0549672
0.0571629
0.0578246
0.0578247
0.0578247
0.0578247
0.0576185
0.0578208
0.0578044
0.0578247
0.0578245
0.0578247
0.0578247
0.0578247
0.0578247
0.0578246
0.0578246
0.0578247
0.0578247
0.0578247
0.0578247
0.0578247
0.0578247
0.0578247
0.0578247
0.0578247
0.0332217
0.0578247
0.0578247
0.0578247
0.0578247
0.0578247
0.0578247
0.0578247
0.0332432
0.0578247
0.0578247
0.0578247
0.0385858
0.0578247
0.0578247
0.0578247
0.0563703
0.0573615
0.0577236
0.0578247
0.0578247
0.0578247
0.0578247
0.057802
0.0578223
0.0578247
0.0578247
0.0578247
0.0578247
0.0578247
0.0578247
0.0578247
0.0578247
0.0578247
0.0578247
0.0578247
0.0578247
0.0578247
0.0578247
0.0578247
0.0578247
0.0578247
0.0578247
0.0578247
0.0578247
0.0578247
0.0578247
0.0578247
0.0578247
0.0578247
0.0578247
0.0578247
0.0578247
0.0560015
0.0571265
0.0578247
0.0578247
0.0578247
0.0577063
0.0578247
0.0578247
0.0578247
0.0578246
0.0578247
0.0578247
0.0578247
0.0578247
0.0578247
0.0578247
0.0578247
0.0578247
0.0578247
0.0578247
0.0578247
0.0578247
0.0578247
0.0578247
0.0578247
0.0578247
0.0578247
0.0578247
0.0574261
0.0577885
0.0578247
0.0578247
0.057589
0.0578247
0.0578246
0.0578245
0.0578246
0.0578246
0.0578247
0.0578247
0.0578246
0.0578246
0.0572401
0.0576958
0.0578247
0.0578245
0.0573467
0.057673
0.0577701
0.0578247
0.0578243
0.0578242
0.057789
0.0578243
0.0578247
0.0578247
0.0578242
0.0578238
0.0578241
0.0578245
0.0578247
0.0578247
0.0578247
0.0578247
0.0578246
0.0578246
0.0578246
0.0578245
0.0578238
0.0578247
0.0578088
0.0578247
0.0577837
0.0578245
0.0547598
0.0578228
0.057816
0.0569676
0.0563527
0.057801
0.057809
0.0578229
0.057278
0.0578101
0.0577954
0.0578222
0.057511
0.0578212
0.0577859
0.0577197
0.0578231
0.057818
0.0575281
0.0578119
0.0574977
0.0578247
0.0578246
0.0578236
0.0578231
0.0578218
0.057814
0.0578043
0.0578048
0.0576579
0.0577232
0.0578081
0.0578244
0.0578231
0.0578125
0.0576368
0.0577813
0.0571927
0.0569695
0.0569582
0.0576189
0.0576742
0.0568481
0.0571
0.0575463
0.0571838
0.0566576
0.0565947
0.0555173
0.0510392
0.0576444
0.0553677
0.0455195
0.0455737
0.0577548
0.0577394
0.0578068
0.057793
0.0577229
0.0576715
0.057711
0.0575182
0.0573455
0.0563038
0.0564548
0.0547753
0.0501694
0.0549085
0.0565379
0.0553548
0.0114389
0.0490944
0.0547384
0.0425008
0.0402638
0.0413262
0.0531254
0.0396031
0.0550391
0.0438827
0.0527735
0.0442144
0.0308771
0.034433
0.0112061
0.0540428
0.0547282
0.0544827
0.0426756
0.0244772
0.0207777
0.0572224
0.0548502
0.0518401
0.0309627
0.00611545
0.0135933
0.0240335
0.00892759
0.0320184
0.0185644
0.0118374
0.0450275
0.018633
0.0430563
0.0476589
0.0202727
0.0306577
0.0332703
0.0261668
0.0134981
0.0106654
0.0048555
0.0114866
0.00242516
0.00793344
0.00800648
0.00508229
0.0029488
0.00502976
0.00511234
0.0045233
0.00580365
0.00260521
0.00613919
0.0183427
0.0132893
0.0147954
0.00861259
0.0043127
0.0111107
0.0104931
0.0111551
0.0143899
0.00130752
0.014881
0.02722
0.0134283
0.0225507
0.0140785
0.00124933
0.00481553
0.0276969
0.0135355
0.00287174
0.0183505
0.017899
0.00638922
0.0166291
0.0272183
0.025453
0.022876
0.0221164
0.0261807
0.0272603
0.0277482
0.0182458
0.00438417
0.0268358
0.0257516
0.0212496
0.0270491
0.0281672
0.0277836
0.021644
0.0272661
0.0207096
0.0019296
0.0258202
0.0117229
0.00872719
0.00201694
0.0265274
0.0274909
0.00856209
0.00616552
0.0104412
0.0280797
0.0280576
0.0234412
0.0278155
0.0288275
0.00873952
0.0284236
0.0260876
0.0116001
0.00247213
0.0163131
0.00771324
0.00941356
0.0129358
0.0186203
0.0206549
0.0267114
0.0272613
0.0175271
0.00715252
0.0470944
0.00412461
0.0262519
0.0179736
0.0310756
0.0323429
0.02992
0.00996666
0.032291
0.0299415
0.028857
0.0286439
0.0267324
0.0123734
0.0326601
0.0170017
0.029237
0.0285832
0.0403608
0.0373042
0.0318366
0.0395031
0.0254538
0.0455085
0.0412348
0.0372722
0.0493712
0.0462391
0.0288838
0.0398291
0.0338599
0.0218632
0.0335821
0.0340309
0.0337767
0.0355804
0.0441266
0.0490589
0.0481308
0.0334211
0.0401944
0.0334211
0.0406787
0.0335006
0.0409738
0.0564987
0.0486805
0.0494642
0.049633
0.0519589
0.0556229
0.0533536
0.0438587
0.0439735
0.0433882
0.0429006
0.0428787
0.046162
0.0439592
0.0465765
0.033013
0.0274699
0.0486219
0.0474839
0.0381636
0.048921
0.0485003
0.0434534
0.0485035
0.0489506
0.0569245
0.0566143
0.0460718
0.0475368
0.0393059
0.0515276
0.0494363
0.0339518
0.0359213
0.0289119
0.0325907
0.0289084
0.039196
0.0274723
0.0182351
0.0441262
0.0182588
0.0421684
0.0534558
0.0552569
0.0449609
0.0507457
0.0552548
0.0512491
0.0241072
0.0421585
0.0182539
0.0487905
0.0492718
0.0289087
0.0358464
0.0284058
0.0275517
0.0447005
0.0487088
0.0555731
0.0527775
0.0541041
0.052241
0.0540784
0.0525849
0.0548615
0.0481941
0.0349566
0.0509802
0.0530201
0.0285343
0.0298436
0.0114425
0.00488298
0.0026021
0.0150148
0.00495499
0.0505145
0.049368
0.0490044
0.0438888
0.0383357
0.0498184
0.0382788
0.0423376
0.0518574
0.0387703
0.0448407
0.0350147
0.0539779
0.0542022
0.0530899
0.031315
0.0453105
0.0312096
0.0117548
0.0211345
0.00536913
0.0186796
0.0288189
0.0469429
0.042341
0.0355942
0.0391269
0.0128183
0.0381517
0.0385684
0.0373074
0.0353893
0.0234981
0.0329803
0.0146993
0.0493793
0.0422227
0.0295079
0.0363455
0.0283737
0.0188711
0.0072347
0.0175357
0.0285689
0.0175997
0.0288553
0.0175097
0.0327992
0.0340361
0.0229758
0.0306352
0.0227152
0.0256987
0.0166462
0.0324298
0.0299099
0.0284382
0.027074
0.0270598
0.0160809
0.0144562
0.0144561
0.0144561
0.0144561
0.0144561
0.00982585
0.0140438
0.00307212
0.0115788
0.01376
0.0142547
0.00962593
0.0090739
0.0102118
0.0129312
0.0136259
0.0144557
0.0144535
0.0132571
0.0140097
0.0139432
0.0119476
0.0119475
0.0139504
0.0139462
0.0144517
0.0144516
0.0144253
0.0144013
0.0144562
0.0144516
0.0144549
0.0144514
0.0139852
0.013115
0.0144541
0.0144512
0.00401199
0.00200798
0.00896464
0.00510384
0.0230884
0.0169409
0.0115636
0.00500707
0.0230883
0.0169409
0.0115641
0.00500683
0.00401198
0.00200798
0.00896461
0.00510383
0.0110923
0.01445
0.0143291
0.0116232
0.0144559
0.0144556
0.0141754
0.0110897
0.00858266
0.0121122
0.01271
0.0138131
0.014266
0.0127105
0.0144461
0.013793
0.0142656
0.0121122
0.0113638
0.0143222
0.00337764
0.00897282
0.014455
0.0144497
0.00337755
0.00897187
0.00534222
0.0144036
0.0137733
0.0144154
0.0143495
0.0128128
0.0144503
0.0138587
0.010946
0.0104583
0.0102732
0.0111647
0.0144547
0.0104695
0.0144544
0.0144532
0.0144552
0.0144554
0.0130836
0.0144517
0.0131672
0.0144281
0.00988948
0.0144479
0.0141663
0.0144552
0.0131492
0.0144559
0.0144556
0.0144558
0.0144559
0.0142569
0.0144224
0.0144317
0.0144457
0.0140211
0.014263
0.0144551
0.0144556
0.0141239
0.0135475
0.0143233
0.014335
0.0144227
0.0144447
0.0144412
0.0144552
0.0144412
0.0144552
0.0144553
0.0144411
0.0144457
0.0144562
0.0144562
0.0144562
0.0144561
0.0144562
0.014443
0.0144156
0.0144495
0.00863592
0.0108196
0.01153
0.0144552
0.0144478
0.0144501
0.0144554
0.0144562
0.0144561
0.0144561
0.0144531
0.0125473
0.0144552
0.0144417
0.0142729
0.0134577
0.014291
0.0142995
0.0133837
0.0144186
0.0142711
0.0115077
0.0140022
0.0137302
0.0144562
0.0144561
0.0144562
0.0144559
0.0144561
0.0122799
0.0111686
0.0121734
0.00339613
0.00906156
0.0123819
0.0138442
0.00918694
0.0125989
0.0124112
0.00339625
0.00906147
0.00269976
0.0123815
0.013844
0.0126181
0.0122693
0.0111545
0.0121053
0.00863594
0.0108198
0.01153
0.0107033
0.0136401
0.0130905
0.013811
0.0131391
0.013434
0.0092815
0.00856583
0.013162
0.012427
0.0120731
0.0138082
0.0131181
0.0134287
0.00928172
0.0085657
0.013162
0.012427
0.0120726
0.0138214
0.0107033
0.01364
0.0130904
0.00334116
0.0123236
0.0138417
0.0138137
0.00334213
0.0087205
0.012323
0.0138403
0.0121355
0.0138118
0.0144487
0.0143937
0.0144482
0.0144401
0.0142348
0.0144148
0.014454
0.0144541
0.0144559
0.0144561
0.0144562
0.0144562
0.0144555
0.00680282
0.0139199
0.00366965
0.0141482
0.0127474
0.0136113
0.0144517
0.0138865
0.0144556
0.0132278
0.0143949
0.0144535
0.0144559
0.0178592
0.0119002
0.00846688
0.0135545
0.0123481
0.0125811
0.0106242
0.0033774
0.0106358
0.0252875
0.0092991
0.00607112
0.0259094
0.0188258
0.0246619
0.0194626
0.0253423
0.0125243
0.0217247
0.0197667
0.0279913
0.0287105
0.0288117
0.0288004
0.0285456
0.0280548
0.0284072
0.0144198
0.0144527
0.0144476
0.0144037
0.0141787
0.0144559
0.0144535
0.0144492
0.0144464
0.0143777
0.014427
0.0144326
0.0143049
0.0141162
0.0129531
0.0143746
0.0137253
0.0139827
0.0144097
0.0142488
0.0142435
0.0144419
0.0139518
0.0125066
0.0138961
0.0124932
0.0139586
0.0139006
0.0144258
0.0142762
0.0144045
0.0144302
0.0132707
0.0143422
0.0135625
0.0138894
0.0144533
0.00862713
0.0121247
0.0120394
0.0086285
0.0121249
0.0120396
0.010906
0.0144562
0.0144562
0.0144562
0.0144562
0.0144559
0.014456
0.0144034
0.014456
0.0144503
0.0144473
0.0144473
0.0107115
0.0107299
0.0144562
0.0144562
0.0141743
0.0144417
0.014455
0.0144551
0.0141775
0.014443
0.0143141
0.0144534
0.0144548
0.0143221
0.0144358
0.0138096
0.0142588
0.0115853
0.0142382
0.0144085
0.0139464
0.0144549
0.0144493
0.0144547
0.00385951
0.0104811
0.00407022
0.00907627
0.00927377
0.0110028
0.00521489
0.00908258
0.0110617
0.0141999
0.00345632
0.00997465
0.0137785
0.0142746
0.0131966
0.0144495
0.0142293
0.0144092
0.0144473
0.0144031
0.0144492
0.0136281
0.0144445
0.0144561
0.0144555
0.0144562
0.0144465
0.0129255
0.0136414
0.0144555
0.0144561
0.0144422
0.0143225
0.0144343
0.0257837
0.0245388
0.00524967
0.00652402
0.0161965
0.0179864
0.0216538
0.0144862
0.0177333
0.021665
0.00607628
0.00666357
0.0106942
0.00378397
0.014401
0.0107491
0.0146024
0.0147812
0.0118217
0.00430089
0.00158556
0.0080878
0.0142715
0.013899
0.0132841
0.014087
0.0112306
0.00647982
0.014454
0.0144254
0.0144536
0.00686183
0.0135587
0.0104894
0.00372169
0.00941447
0.012031
0.00316621
0.0100786
0.00125565
0.00563387
0.00894185
0.015394
0.014414
0.0143049
0.0119921
0.00993707
0.00123187
0.0129548
0.0160443
0.0091422
0.0244394
0.0230437
0.0124149
0.00897535
0.00895392
0.00621124
0.00772609
0.00643944
0.0140046
0.00261936
0.00927497
0.026714
0.0281578
0.0276735
0.0277534
0.0170439
0.0159245
0.0259999
0.00483017
0.0121719
0.00535907
0.0031007
0.0111305
0.0276571
0.0264519
0.0260308
0.0282524
0.0259939
0.0266977
0.00777463
0.00208933
0.00684142
0.0123956
0.00588533
0.00636608
0.0107432
0.0236079
0.0278592
0.00601455
0.0112046
0.00991734
0.0285287
0.0287967
0.0275582
0.0276262
0.0284305
0.0261976
0.0201551
0.0250886
0.0220933
0.0267697
0.0276494
0.0212858
0.02158
0.0272707
0.0264769
0.027282
0.0284302
0.0141891
0.0168094
0.00488218
0.0232681
0.0259727
0.0271555
0.0270143
0.0265688
0.0286349
0.0265783
0.00933121
0.0194295
0.0286079
0.0257691
0.0288119
0.0288075
0.0285482
0.0284541
0.0276259
0.02772
0.0253151
0.0278073
0.0268386
0.0283573
0.0282111
0.0264798
0.0280178
0.0268288
0.0283532
0.0281834
0.0144561
0.0144562
0.0144562
0.0144562
0.0144561
0.0144562
0.014456
0.0144561
0.0144551
0.0144558
0.0144561
0.0144547
0.0144548
0.0144381
0.0144504
0.0144233
0.0144136
0.0143931
0.0138466
0.0142617
0.0143417
0.0144204
0.0144511
0.0144028
0.0143905
0.0143032
0.0144193
0.0144511
0.0142196
0.0143208
0.0144351
0.0120615
0.0136344
0.0131996
0.0141521
0.0143824
0.0144418
0.0143844
0.0143232
0.0144344
0.013786
0.0138068
0.0124308
0.0123766
0.0121936
0.010502
0.0136078
0.0131235
0.0109654
0.0120185
0.0119134
0.00886443
0.014275
0.0139114
0.0133369
0.0141035
0.012672
0.0113158
0.0144523
0.0144386
0.0143952
0.0143137
0.0144546
0.0144115
0.0144558
0.0138126
0.0142374
0.0144488
0.0144552
0.00984726
0.0132198
0.011061
0.0144196
0.0144522
0.0144476
0.0143707
0.0196971
0.02121
0.0236138
0.0072426
0.00761506
0.014387
0.0141353
0.0144418
0.0140459
0.0141558
0.0139926
0.0128355
0.0128426
0.0144029
0.0144462
0.0144544
0.0144519
0.0144557
0.0144549
0.0144562
0.0144562
0.0144332
0.0143455
0.0144562
0.0144562
0.0207867
0.0171647
0.0154734
0.0184438
0.0149926
0.004103
0.00212565
0.00633992
0.00546129
0.0110792
0.0141224
0.0143313
0.0139042
0.0132975
0.00748616
0.0082551
0.00715128
0.0120155
0.0204131
0.0212676
0.01558
0.0238745
0.0122491
0.0014623
0.00603506
0.0196931
0.0247399
0.0245299
0.0189217
0.00812596
0.00592953
0.00730714
0.00270234
0.0131381
0.0172
0.0195637
0.0233419
0.0130566
0.0128562
0.00287931
0.00874054
0.00222736
0.0262044
0.0283279
0.0138494
0.0142699
0.014456
0.0144562
0.0144562
0.0138072
0.0138381
0.0127924
0.0144532
0.0144333
0.0144535
0.0144527
0.0134336
0.0136591
0.0118056
0.0119938
0.0109108
0.00245683
0.00612351
0.00988088
0.0144562
0.0144562
0.0144411
0.0144449
0.014124
0.014446
0.0144031
0.0127017
0.0138048
0.0142866
0.0144561
0.014453
0.0144558
0.0144406
0.0144388
0.0144021
0.0144562
0.0144556
0.0144561
0.0143152
0.0132069
0.0138287
0.0130119
0.0138324
0.0139907
0.0121234
0.00920607
0.00870347
0.014235
0.0134212
0.0143066
0.0136958
0.0140975
0.0136629
0.013248
0.0138358
0.0140844
0.0132622
0.0138168
0.0143656
0.014193
0.0144462
0.0144026
0.0144509
0.0144195
0.0144558
0.0144562
0.0144562
0.0144562
0.0144383
0.0144079
0.0144562
0.0144556
0.0104513
0.0101445
0.0133778
0.0144441
0.0144434
0.0138222
0.0143111
0.0135531
0.0135545
0.0141338
0.0127374
0.0129303
0.0133432
0.00968284
0.00650572
0.010651
0.010363
0.0125853
0.00328061
0.0185621
0.00579692
0.0147746
0.0103374
0.00239298
0.0125588
0.0144364
0.0144549
0.014456
0.0144562
0.0144562
0.0142015
0.0144017
0.0144215
0.0144523
0.014456
0.0113242
0.0144431
0.0144544
0.0144503
0.00596066
0.00911396
0.00263224
0.0144524
0.0131858
0.00615698
0.00957779
0.0104808
0.0144168
0.0143357
0.0132423
0.0155262
0.00979814
0.0128894
0.00748029
0.018177
0.0207337
0.00863726
0.00574498
0.00100294
0.00637986
0.0137412
0.013078
0.0130056
0.00632347
0.00755787
0.00721672
0.0136818
0.0131883
0.016435
0.00201906
0.00578649
0.00178862
0.00658055
0.0104074
0.0144704
0.00654696
0.0175532
0.00180493
0.0197493
0.0112346
0.0097768
0.0185643
0.0204689
0.0238018
0.0239171
0.0276081
0.00670391
0.0234629
0.0212843
0.0165004
0.0150377
0.00757163
0.0137076
0.0266098
0.0285079
0.0281758
0.0161799
0.0233777
0.0185266
0.0170796
0.00711399
0.0129779
0.00720566
0.00293662
0.00260998
0.0150269
0.0186953
0.0167521
0.0162369
0.0132339
0.0104825
0.00914301
0.0097979
0.0104812
0.00914287
0.0144263
0.00848715
0.0144557
0.0144517
0.0141435
0.0140907
0.00784673
0.0100638
0.00571428
0.0144437
0.0144545
0.0144505
0.0160637
0.0234959
0.0176736
0.0233145
0.0170773
0.0113022
0.0119636
0.00397198
0.0128248
0.0144354
0.0143357
0.0144369
0.00363344
0.00620258
0.0145607
0.00618041
0.0187217
0.0172675
0.0127298
0.0144031
0.0172582
0.0175175
0.00784383
0.0100562
0.00570546
0.0033699
0.00912432
0.00886688
0.00789244
0.0136873
0.0117677
0.00625553
0.0113079
0.0144264
0.0144518
0.0144488
0.0239565
0.0171634
0.021206
0.0252736
0.019484
0.0133805
0.0137353
0.0117732
0.00632475
0.00788849
0.0144264
0.0144518
0.0144488
0.0113082
0.0212057
0.025275
0.0194844
0.0157424
0.0239598
0.0171647
0.0175177
0.0172582
0.00784387
0.0100563
0.00570581
0.0164049
0.0226813
0.0216314
0.0150582
0.00263737
0.00995237
0.0172676
0.0187218
0.0131784
0.0135077
0.00263384
0.00363359
0.00618038
0.00620257
0.00147188
0.00396318
0.00784673
0.0100638
0.00571429
0.0113242
0.0144437
0.0144545
0.0144505
0.0234959
0.0176736
0.0233145
0.0170773
0.0144431
0.0144544
0.0144503
0.0113022
0.0163945
0.0100192
0.0139322
0.0119636
0.00498038
0.00911396
0.00397198
0.0128248
0.0142559
0.0124627
0.0144441
0.00981492
0.00346815
0.0142808
0.0174423
0.0172349
0.0142801
0.0173582
0.00590399
0.0107987
0.0139762
0.0109787
0.00896035
0.0128866
0.0107796
0.00993493
0.00855533
0.0117675
0.0119434
0.00855651
0.0119434
0.0128893
0.0199282
0.0132659
0.00812041
0.00919304
0.0144222
0.0144017
0.0132678
0.0199115
0.0144537
0.0144457
0.00323224
0.0144559
0.0144555
0.0144543
0.0139096
0.0111767
0.0126674
0.0142873
0.0143786
0.013978
0.00342388
0.023461
0.0185401
0.0171272
0.0144476
0.0144526
0.014455
0.014455
0.0164101
0.0144511
0.0144548
0.0144546
0.0144509
0.00908294
0.0034301
0.00342378
0.00696188
0.00794775
0.00121924
0.0127768
0.00988199
0.0101325
0.00635298
0.008121
0.0113875
0.0107611
0.00505224
0.0132018
0.0140978
0.012681
0.0136316
0.0141407
0.0124128
0.0135035
0.01405
0.0124289
0.0127298
0.00799903
0.0074188
0.0100094
0.00516448
0.0125845
0.00839273
0.0161987
0.0144529
0.014455
0.0079354
0.00688656
0.00908611
0.00343088
0.0144548
0.0169553
0.0234771
0.0185369
0.0171364
0.0144553
0.0144526
0.014455
0.014455
0.0164098
0.0144508
0.0144547
0.0144545
0.0144295
0.0144509
0.00711177
0.0128541
0.00908252
0.00342987
0.00342351
0.0144558
0.0144554
0.0128905
0.0107845
0.00994062
0.0109742
0.0138874
0.0144525
0.0144541
0.00812001
0.00919232
0.0141673
0.0129169
0.0140134
0.0143153
0.0141198
0.0143927
0.014456
0.0144554
0.0143695
0.0144439
0.0144489
0.0143331
0.0142805
0.0135208
0.0135202
0.0142942
0.0143356
0.0143321
0.0143333
0.0144185
0.014271
0.0115129
0.0140026
0.0137312
0.0144562
0.0144559
0.0144558
0.0144511
0.0144556
0.0144561
0.0144562
0.0144562
0.0144561
0.0144562
0.0144562
0.00179147
0.0128234
0.0144066
0.0142569
0.0144255
0.00217664
0.0112702
0.00964185
0.0104076
0.0144512
0.0144544
0.0122441
0.0102322
0.0117884
0.00290942
0.00357637
0.00493435