/*--------------------------------*- C++ -*----------------------------------*\
| =========                 |                                                 |
| \\      /  F ield         | OpenFOAM: The Open Source CFD Toolbox           |
|  \\    /   O peration     | Version:  2206                                  |
|   \\  /    A nd           | Website:  www.openfoam.com                      |
|    \\/     M anipulation  |                                                 |
\*---------------------------------------------------------------------------*/
FoamFile
{
    version     2.0;
    format      ascii;
    arch        "LSB;label=32;scalar=64";
    class       volScalarField;
    location    "0";
    object      thicknessFraction;
}
// * * * * * * * * * * * * * * * * * * * * * * * * * * * * * * * * * * * * * //

dimensions      [0 0 0 0 0 0 0];

internalField   uniform 0;

boundaryField
{
    defaultFaces
    {
        type            empty;
    }
    inlet
    {
        type            fixedValue;
        value           uniform 0;
    }
    inlet2
    {
        type            fixedValue;
        value           uniform 0;
    }
    outlet
    {
        type            fixedValue;
        value           uniform 0;
    }
    walls
    {
        type            fixedValue;
        value           nonuniform List<scalar> 
8834
(
0
0
0
0
0
0
0
0
0
0
0
0
0
0
0
0
0
0
0
0
0
0
0
0
0
0
0
0
0
0
0
0
0
0
0
0
0
0
0
0
0
0
0
0
0
0
0
0
0
0
0
0
0
0
0
0
0
0
0
0
0
0
0
0
0
0
0
0
0
0
0
0
0
0
0
0
0
0
0
0
0
0
0
0
0
0
0
0
0
0
0
0
0
0
0
0
0
0
0
0
0
0
0
0
0
0
0
0
0
0
0
0
0
0
0
0
0
0
0
0
0
0
0
0
0
0
0
0
0
0
0
0
0
0
0
0
0
0
0
0
0
0
0
0
0
0
0
0
0
0
0
0
0
0
0
0
0
0
0
0
0
0
0
0
0
0
0
0
0
0
0
0
0
0
0
0
0
0
0
0
0
0
0
0
0
0
0
0
0
0
0
0
0
0
0
0
0
0
0
0
0
0
0
0
0
0
0
0
0
0
0
0
0
0
0
0
0
0
0
0
0
0
0
0
0
0
0
0
0
0
0
0
0
0
0
0
0
0
0
0
0
0
0
0
0
0
0
0
0
0
0
0
0
0
0
0
0
0
0
0
0
0
0
0
0
0
0
0
0
0
0
0
0
0
0
0
0
0
0
0
0
0
0
0
0
0
0
0
0
0
0
0
0
0
0
0
0
0
0
0
0
0
0
0
0
0
0
0
0
0
0
0
0
0
0
0
0
0
0
0
0
0
0
0
0
0
0
0
0
0
0
0
0
0
0
0
0
0
0
0
0
0
0
0
0
0
0
0
0
0
0
0
0
0
0
0
0
0
0
0
0
0
0
0
0
0
0
0
0
0
0
0
0
0
0
0
0
0
0
0
0
0
0
0
0
0
0
0
0
0
0
0
0
0
0
0
0
0
0
0
0
0
0
0
0
0
0
0
0
0
0
0
0
0
0
0
0
0
0
0
0
0
0
0
0
0
0
0
0
0
0
0
0
0
0
0
0
0
0
0
0
0
0
0
0
0
0
0
0
0
0
0
0
0
0
0
0
0
0
0
0
0
0
0
0
0
0
0
0
0
0
0
0
0
0
0
0
0
0
0
0
0
0
0
0
0
0
0
0
0
0
0
0
0
0
0
0
0
0
0
0
0
0
0
0
0
0
0
0
0
0
0
0
0
0
0
0
0
0
0
0
0
0
0
0
0
0
0
0
0
0
0
0
0
0
0
0
0
0
0
0
0
0
0
0
0
0
0
0
0
0
0
0
0
0
0
0
0
0
0
0
0
0
0
0
0
0
0
0
0
0
0
0
0
0
0
0
0
0
0
0
0
0
0
0
0
0
0
0
0
0
0
0
0
0
0
0
0
0
0
0
0
0
0
0
0
0
0
0
0
0
0
0
0
0
0
0
0
0
0
0
0
0
0
0
0
0
0
0
0
0
0
0
0
0
0
0
0
0
0
0
0
0
0
0
0
0
0
0
0
0
0
0
0
0
0
0
0
0
0
0
0
0
0
0
0
0
0
0
0
0
0
0
0
0
0
0
0
0
0
0
0
0
0
0
0
0
0
0
0
0
0
0
0
0
0
0
0
0
0
0
0
0
0
0
0
0
0
0
0
0
0
0
0
0
0
0
0
0
0
0
0
0
0
0
0
0
0
0
0
0
0
0
0
0
0
0
0
0
0
0
0
0
0
0
0
0
0
0
0
0
0
0
0
0
0
0
0
0
0
0
0
0
0
0
0
0
0
0
0
0
0
0
0
0
0
0
0
0
0
0
0
0
0
0
0
0
0
0
0
0
0
0
0
0
0
0
0
0
0
0
0
0
0
0
0
0
0
0
0
0
0
0
0
0
0
0
0
0
0
0
0
0
0
0
0
0
0
0
0
0
0
0
0
0
0
0
0
0
0
0
0
0
0
0
0
0
0
0
0
0
0
0
0
0
0
0
0
0.122197
0.891047
0.993916
0.216852
0.99847
0.993908
0.999392
0.86832
0.122197
0.891047
0.522948
0.964205
0.98322
0.998522
0.522948
0.964205
0.619246
0.99858
0.998465
0.941109
0.940927
0.941739
0.999228
0.991031
0.999027
0.92602
0.999098
0.998909
0.897218
0.570985
0.992895
0.207521
0.988912
0.999589
0.989334
0.98981
0.999594
0.988855
0.92993
0.965272
1
0.942369
1
0.774407
0.805154
0.783565
0.669437
0.999632
0.515399
0.999746
0.25902
0.773913
0.293932
0.80423
0.73806
0.678137
0.841263
0.623913
0.254194
0.351253
0.61288
0.665431
0.790832
0.751002
0.576624
0.747757
0.766159
0.833315
0.679806
0.249362
0.982635
0.946286
0.878428
0.878932
0.931975
0.765056
0.975792
0.939392
0.938156
0.961243
0.831588
0.951176
0.875882
0.999469
0.997478
0.992868
0.979243
0.87277
0.999131
0.865864
0.998321
0.998298
0.997156
0.992519
0.999995
0.999965
0.999863
0.984818
0.848882
0.999991
0.999959
0.95567
0.885223
0.416836
0.999981
0.999975
0.999734
0.999844
0.999995
1
0.999999
0.985423
1
0.82575
1
0.999464
0.999545
0.998787
0.999984
1
0.796473
0.999545
0.999999
0.999999
1
1
0.99428
0.811311
1
0.682911
0.791187
1
0.921129
1
0.99984
1
1
1
1
0.999593
1
0.80552
0.807139
0.823493
1
0.999994
1
1
0.999955
1
0.997497
1
1
0.978112
1
1
1
1
1
1
0.999971
1
1
0.999999
0.996261
0.999961
0.999973
0.99638
0.999725
0.999999
0.999998
0.999981
0.999525
0.999878
0.967839
0.999713
0.99869
0.780569
0.731357
0.995774
0.999931
0.986045
0.82758
0.31398
0.898915
0.961011
0.815868
0.335423
0.986936
0.975599
0.769819
0.711158
0.835654
0.674145
0.355158
0.332869
0.241619
0.787846
0.709429
0.155932
0.0679442
0.121513
0.113077
0.118397
0.502445
0.999844
0.999844
0.201781
0.57997
0.521639
0.550517
0.467976
0.984128
0.897685
0.790942
0.56269
0.767463
0.249101
0.884728
0.959388
0.238299
0.630616
0.99613
0.671802
0.725088
0.252319
0.94134
0.92376
0.806551
0.823352
0.819796
0.843484
0.934605
0.768863
0.850233
0.841648
0.794483
0.974499
0.968573
0.845944
0.954668
0.833432
0.873312
0.999201
0.595408
0.899817
0.852873
0.763257
0.932119
0.678961
0.519671
0.432106
0.707078
0.579761
0.771241
0.945363
0.373712
0.730794
0.647146
0.577063
0.842803
0.962271
0.100151
0.653695
0.743992
0.600727
0.488696
0.667326
0.862583
0.0430867
0.959109
0.773532
0.5321
0.0657952
0.716289
0.79559
0.824923
0.224208
0.771334
0.9989
0.974683
0.883728
0.999051
0.997027
0.997022
0.740909
0.743048
0.99905
0.998955
0.865934
0.999419
0.999547
0.304429
0.829667
0.999379
0.829657
0.304363
0.999642
0.999641
0.999954
0.999998
0.999943
0.999995
0.999994
0.999994
0.998943
0.998942
1
1
0.883581
0.999114
0.883738
0.958949
0.998891
0.999117
0.999651
0.756228
0.74637
0.148178
0.239953
0.418707
0.591817
0.998931
0.900472
0.592064
0.418682
0.900491
0.75331
0.515189
0.288451
0.515926
0.248429
0.999651
0.756228
0.74637
0.605376
0.148178
0.938213
0.963172
0.96314
0.939285
0.370065
0.999787
0.999989
0.916058
0.303937
0.574081
0.426483
0.574145
0.999984
0.466838
0.305238
0.677346
0.999926
0.99891
0.987617
0.466745
0.843744
0.801001
0.767434
0.62756
0.224346
0.825647
0.999707
0.999661
0.224449
0.627569
0.223725
0.843157
0.548159
0.923744
0.938177
0.784631
0.764278
0.218408
0.999737
0.825409
0.999701
0.999646
0.627533
0.895325
0.998572
0.99888
0.998487
0.94497
0.998492
0.831489
0.448798
0.999787
0.999989
0.916298
0.30316
0.996453
0.999259
0.939147
0.370669
0.999568
0.990366
0.996592
0.384559
0.866821
0.998539
0.957154
0.426546
0.384611
0.999072
0.999973
0.999132
0.843754
0.801039
0.305227
0.677305
0.850028
0.954779
0.999367
0.992867
0.938972
0.939163
0.999993
0.999973
0.941698
0.895317
0.998068
0.894561
0.940925
0.356971
0.973875
0.871276
0.990845
0.343236
0.305859
0.999681
0.999638
0.874454
0.999994
0.735085
0.873475
0.687313
0.826658
0.133833
0.0673122
0.74186
0.999666
0.999574
0.993286
0.436552
0.999813
0.999372
0.43905
0.455804
0.999975
1
0.999918
0.999994
0.998356
0.884236
0.99441
0.999105
0.416233
0.997312
0.999392
0.415978
0.99941
0.415978
0.613928
0.596725
0.857578
0.416233
0.997311
0.9971
0.999949
0.999902
0.298632
0.298613
0.333907
0.436637
0.333914
0.999393
0.999809
0.43904
0.455823
0.997941
0.999955
0.999616
0.99997
0.999724
0.999985
0.935896
0.936715
0.861218
1
0.999999
0.999998
0.999998
1
1
0.999999
1
1
0.998881
0.883923
0.883926
0.826942
0.989157
0.678835
0.88422
0.998897
0.99826
0.999078
0.376116
0.87128
0.999257
0.536454
0.826658
0.133832
0.305691
0.687323
0.873473
0.375424
0.708441
0.998556
0.971646
0.794593
0.891675
0.97165
0.794574
0.891657
0.998556
0.999638
0.874455
0.375433
0.448598
0.732704
0.536454
0.305694
0.30586
0.557526
0.376116
0.87128
0.973875
0.871276
0.990845
0.343236
0.469202
0.473623
0.958969
0.540995
0.331568
0.644931
0.999898
0.999605
0.473646
0.958964
0.484269
0.954742
0.48175
0.499139
0.517192
0.544109
0.586645
0.952321
0.616301
0.287882
0.976268
0.947689
0.44117
0.586704
0.951323
0.616335
0.287887
0.975888
0.947648
0.447769
0.957284
0.950203
0.402556
0.480775
0.536737
0.999258
0.998896
0.44782
0.957247
0.950106
0.520577
0.481969
0.991965
0.970676
0.988669
0.935433
0.996417
0.938616
0.996423
0.938011
0.784323
0.78438
0.999696
0.795381
0.332714
0.875932
0.999997
0.999688
0.875928
0.999997
0.999995
0.796759
0.265501
0.908204
0.689723
0.220432
0.557049
0.978301
0.584231
0.320559
0.275004
0.999518
0.995426
0.999984
0.795082
0.330566
0.689703
0.999994
0.999663
0.999977
0.999984
0.875897
0.999998
0.999664
0.875892
0.999997
0.999995
0.689601
0.796742
0.265578
0.969508
0.995952
0.997876
0.998562
0.999521
0.802113
0.987453
0.987324
0.950838
0.988095
0.947291
0.493433
0.457291
0.998901
0.998522
0.827482
0.562575
0.998414
0.597037
0.983218
0.998414
0.998901
0.827484
0.562575
0.988095
0.947291
0.493433
0.457291
0.802113
0.950838
0.999582
0.999895
0.999788
0.481784
0.49932
0.517165
0.544528
0.313324
0.998974
0.999611
0.999493
0.541255
0.331716
0.645008
0.313364
0.999723
0.996609
0.44126
0.999385
0.999672
0.52062
0.482017
0.402545
0.480743
0.536714
0.977747
0.937354
0.999019
1
1
0.999998
0.999998
1
1
1
0.999998
0.999998
0.969621
0.988715
0.969057
0.970106
0.969718
0.897209
0.998076
0.998218
0.969416
0.999975
0.999913
0.999948
0.999983
0.99965
0.999958
0.99998
0.999651
0.999958
0.997067
0.998428
0.991568
0.994574
0.997776
0.989126
0.994536
0.997773
0.989094
0.998699
0.999781
0.998687
0.99849
0.991757
0.998984
0.999312
0.999958
0.998995
0.999491
0.859687
0.960472
0.999782
0.999826
0.999881
0.999996
0.999781
0.999997
1
0.999996
0.999976
0.97073
0.859421
0.96041
0.999998
1
0.999997
0.999964
0.996689
0.99276
0.994297
0.93748
0.999995
1
0.999981
0.999999
0.999956
0.999158
1
1
0.999996
0.999999
0.196975
0.41811
0.574837
0.783168
0.875567
0.826964
0.815461
0.752599
0.780727
0.859449
0.806381
0.780729
0.752599
0.829082
0.826882
0.783179
0.875411
0.823866
0.418128
0.166094
0.574885
0.196971
0.665351
0.799757
0.652595
0.691462
0.607842
0.351247
0.0860893
0.660139
0.249087
0.834846
0.804066
0.862707
0.74944
0.917694
0.910782
0.963832
0.972821
0.751027
0.865117
0.891548
0.972816
0.963794
0.839335
0.790372
0.940871
0.91647
0.788781
0.837527
0.886658
0.794741
0.351255
0.697644
0.367789
0.706869
0.613753
0.804529
0.770689
0.448955
0.759891
0.792035
0.856686
0.785408
0.93879
0.912605
0.392478
0.836976
0.735544
0.238661
0.635707
0.660161
0.653353
0.966372
0.875472
0.988265
0.99116
0.983655
0.994673
0.993869
0.998313
0.998989
0.990918
0.998988
0.998299
0.974525
0.996471
0.994143
0.987538
0.990177
0.848551
0.922963
0.955848
0.896336
0.975162
0.930206
0.985143
0.972625
0.987135
0.993553
0.973491
0.996414
0.994039
0.909278
0.986581
0.975889
0.866438
0.962511
0.966376
0.965512
0.998853
0.992497
0.949185
0.999701
0.999787
0.999841
0.999471
0.999897
0.99994
0.999881
0.999977
0.99999
0.999933
0.991224
0.999766
0.99999
0.999977
0.999017
0.999937
0.999881
0.998332
0.999781
0.999788
0.937284
0.949224
0.987496
0.995406
0.999239
0.999754
0.999842
0.996446
0.999317
0.999815
0.999018
0.999944
0.999884
0.995087
0.999649
0.99924
0.991961
0.992868
0.998699
0.998852
0.998754
0.999986
0.999999
0.999986
1
0.667067
0.672277
0.886733
1
1
1
0.420823
0.967935
0.999998
1
1
0.593699
0.999995
0.99999
1
0.999999
0.999979
0.999999
0.999999
0.949095
0.988748
0.999924
0.999993
0.999985
0.999999
0.999659
0.99995
0.999991
0.999997
0.999999
0.999912
0.999998
0.999993
0.999844
0.999987
0.999988
0.999987
0.999999
0.872661
1
1
0.999375
0.999745
0.999812
0.999999
1
1
1
0.998414
0.999999
0.990717
0.999907
0.988022
1
1
1
0.673834
1
1
1
0.86802
1
1
1
0.936763
0.841301
0.950584
0.988556
1
1
1
1
0.996434
0.999932
0.999649
1
0.999997
1
1
1
1
0.999999
0.999999
1
1
1
1
1
1
1
1
1
0.861788
1
1
1
1
1
1
1
0.862344
1
1
1
0.762617
1
1
1
0.974849
0.991991
0.998252
1
1
1
1
0.999607
0.999959
1
1
1
1
1
1
1
1
1
1
1
1
1
1
1
1
1
1
1
1
1
1
1
1
1
1
1
1
0.96847
0.987925
1
1
1
0.997953
1
1
1
0.999999
1
1
1
1
1
1
1
1
1
1
1
1
1
1
1
1
1
1
0.993108
0.999375
1
1
0.995924
1
1
0.999997
0.999999
0.999999
1
1
0.999999
0.999999
0.98989
0.997772
1
0.999996
0.991734
0.997378
0.999056
1
0.999993
0.999993
0.999383
0.999994
1
1
0.999992
0.999984
0.99999
0.999997
1
1
1
1
0.999999
0.999999
0.999999
0.999996
0.999984
1
0.999725
1
0.999292
0.999998
0.946997
0.999967
0.99985
0.985177
0.974544
0.999591
0.999729
0.999969
0.990545
0.999749
0.999494
0.999957
0.994575
0.99994
0.999329
0.998185
0.999972
0.999885
0.99487
0.99978
0.994345
1
0.999998
0.999982
0.999973
0.999951
0.999816
0.999647
0.999656
0.997115
0.998245
0.999714
0.999995
0.999973
0.99979
0.996751
0.99925
0.98907
0.98521
0.985015
0.996442
0.997398
0.983112
0.987467
0.995187
0.988916
0.979817
0.97873
0.960098
0.882655
0.996882
0.957509
0.787199
0.788135
0.998791
0.998525
0.999691
0.999452
0.99824
0.997351
0.998034
0.9947
0.991714
0.973699
0.97631
0.947265
0.867612
0.949569
0.977746
0.957286
0.19782
0.849022
0.946626
0.734994
0.696308
0.714681
0.918733
0.684883
0.951827
0.758893
0.912647
0.764629
0.533978
0.595473
0.193795
0.934598
0.946451
0.942205
0.738017
0.4233
0.359322
0.989584
0.948561
0.896504
0.535458
0.211517
0.299189
0.415627
0.176446
0.553715
0.321046
0.204713
0.778689
0.322232
0.744601
0.824197
0.350589
0.530184
0.575365
0.452519
0.233431
0.184443
0.143948
0.397291
0.04194
0.235197
0.138461
0.125559
0.0509954
0.124261
0.176822
0.156449
0.200733
0.0901073
0.212338
0.634426
0.459642
0.511734
0.595773
0.255711
0.768577
0.725857
0.77165
0.995417
0.0791414
0.900713
0.941466
0.928895
0.77997
0.834752
0.0864219
0.166556
0.957962
0.802554
0.0993256
0.634696
0.619079
0.220986
0.575157
0.941409
0.88035
0.79122
0.764946
0.905521
0.942859
0.959734
0.631075
0.151637
0.928178
0.890677
0.734965
0.935556
0.974227
0.960959
0.748608
0.943059
0.716288
0.0667398
0.893053
0.405462
0.30185
0.0697607
0.917512
0.950836
0.29614
0.213249
0.288906
0.9712
0.970439
0.81077
0.962062
0.997065
0.302277
0.983098
0.902301
0.401215
0.0855044
0.438843
0.152446
0.271325
0.372844
0.460019
0.408228
0.791893
0.825033
0.404144
0.123693
0.814434
0.0713296
0.453992
0.310829
0.53741
0.745769
0.517426
0.17236
0.744571
0.887653
0.998085
0.990717
0.462301
0.213982
0.564813
0.294021
0.505615
0.494309
0.797699
0.645126
0.550571
0.683153
0.44019
0.787009
0.7131
0.736655
0.853808
0.799642
0.999014
0.787189
0.836517
0.661666
0.829653
0.672593
0.584123
0.615315
0.76311
0.848407
0.832358
0.577973
0.695108
0.577973
0.703484
0.579348
0.708587
0.977069
0.841863
0.855417
0.858335
0.898559
0.961924
0.922678
0.758477
0.760463
0.750341
0.741908
0.741529
0.798309
0.760215
0.805478
0.856373
0.81438
0.84085
0.82117
0.659989
0.846024
0.838747
0.751468
0.838803
0.846535
0.984432
0.979068
0.79675
0.822085
0.776849
0.8911
0.854934
0.838787
0.887444
0.999984
0.845419
0.999865
0.774676
0.814451
0.630705
0.763104
0.360869
0.729246
0.924447
0.955594
0.777538
0.877579
0.955558
0.886285
0.595575
0.729075
0.360774
0.843766
0.85209
0.999875
0.885593
0.982482
0.952941
0.773036
0.842353
0.961062
0.912716
0.935658
0.903438
0.935214
0.909384
0.948756
0.833452
0.604528
0.881634
0.916912
0.704947
0.516105
0.226151
0.0965081
0.0514283
0.259662
0.122414
0.87358
0.853754
0.847466
0.758998
0.662964
0.861543
0.661981
0.732172
0.896804
0.67048
0.775459
0.605533
0.933476
0.937355
0.918118
0.541551
0.783583
0.539729
0.203284
0.365492
0.092852
0.323038
0.498385
0.811814
0.73223
0.615554
0.676648
0.221675
0.659782
0.666988
0.645182
0.61201
0.406368
0.570349
0.29052
0.853949
0.730185
0.5103
0.718338
0.70098
0.559457
0.214482
0.606514
0.846962
0.608726
0.712878
0.605613
0.810311
0.672695
0.681148
0.794692
0.673421
0.888849
0.575748
0.801185
0.90519
0.9836
0.936415
0.935925
0.556194
1
0.999998
0.999994
0.999993
0.999996
0.679699
0.971477
0.212513
0.800957
0.951841
0.986064
0.66587
0.627684
0.706396
0.894513
0.94257
0.999968
0.999816
0.917054
0.969115
0.964517
0.826469
0.826464
0.965014
0.964722
0.999691
0.999684
0.997864
0.996204
1
0.999686
0.999913
0.999668
0.967417
0.907224
0.999855
0.999656
0.138764
0.0992153
0.310063
0.252183
0.798564
0.837057
0.399953
0.247402
0.798563
0.837057
0.39997
0.24739
0.138763
0.0992152
0.310062
0.252182
0.767306
0.999576
0.991212
0.804032
0.99998
0.99996
0.980576
0.767125
0.593702
0.837859
0.879211
0.955514
0.986844
0.879241
0.999302
0.954126
0.986814
0.837858
0.673788
0.990735
0.467294
0.620692
0.999917
0.999555
0.467282
0.620626
0.211169
0.996361
0.952761
0.997176
0.992618
0.88632
0.999596
0.958671
0.757184
0.723451
0.710643
0.772311
0.999898
0.72422
0.999881
0.999797
0.999931
0.999946
0.905055
0.999688
0.910837
0.998057
0.684101
0.99943
0.979945
0.999933
0.90959
0.999983
0.99996
0.999977
0.999985
0.986213
0.997667
0.998309
0.999275
0.969904
0.986637
0.999925
0.999963
0.977015
0.937143
0.990812
0.991621
0.997685
0.999204
0.998963
0.999931
0.998962
0.99993
0.99994
0.998955
0.999277
1
1
0.999999
0.999992
1
0.999086
0.997194
0.999535
0.597387
0.748445
0.79758
0.999935
0.99942
0.99958
0.999948
1
0.999998
0.999996
0.999787
0.867958
0.999932
0.998999
0.987323
0.93093
0.988576
0.989159
0.925814
0.997399
0.9872
0.796042
0.968595
0.94978
0.999999
0.999999
0.999999
0.999978
0.999999
0.849459
0.772585
0.842089
0.469852
0.62683
0.856514
0.957667
0.635503
0.871527
0.858542
0.469869
0.626823
0.466887
0.856489
0.957653
0.87285
0.848727
0.771608
0.837377
0.597388
0.748458
0.797585
0.740398
0.943548
0.90553
0.955372
0.908895
0.92929
0.642044
0.592538
0.910477
0.859633
0.835155
0.955174
0.907442
0.928924
0.642059
0.592529
0.910476
0.85963
0.835119
0.956091
0.740398
0.943545
0.905525
0.462246
0.852481
0.957496
0.955555
0.462381
0.603237
0.852438
0.957395
0.839472
0.955426
0.999486
0.99568
0.999452
0.99889
0.984687
0.997141
0.999852
0.99986
0.999984
0.999996
1
0.999999
0.999953
0.470582
0.962905
0.253847
0.978698
0.8818
0.941554
0.999691
0.960596
0.999961
0.915025
0.995762
0.999817
0.999984
0.617702
0.823191
0.585693
0.937628
0.610127
0.621637
0.734928
0.194692
0.735728
0.874627
0.357368
0.299977
0.896135
0.723482
0.85299
0.67316
0.876521
0.433181
0.751397
0.683677
0.968145
0.993019
0.996519
0.996128
0.987315
0.97034
0.982527
0.997485
0.999759
0.99941
0.996371
0.980806
0.999985
0.999818
0.999515
0.999323
0.994574
0.997982
0.998373
0.989537
0.976483
0.896027
0.994355
0.949444
0.967247
0.996786
0.985658
0.985285
0.999011
0.965109
0.865141
0.961261
0.864215
0.965579
0.961571
0.997897
0.987547
0.996424
0.998206
0.917993
0.992114
0.938183
0.960791
0.999801
0.596779
0.838718
0.832821
0.596873
0.838734
0.832835
0.754418
1
1
0.999999
1
0.999978
0.999988
0.996347
0.99999
0.999593
0.999385
0.999387
0.740966
0.742234
1
1
0.980504
0.998998
0.999922
0.999927
0.980722
0.999088
0.990174
0.999809
0.999908
0.990728
0.99859
0.955275
0.98635
0.801411
0.98492
0.996704
0.964739
0.999914
0.999525
0.999899
0.26698
0.725026
0.187704
0.538155
0.458221
0.543653
0.25767
0.448774
0.765186
0.98227
0.23909
0.689993
0.953121
0.98744
0.912873
0.999538
0.984305
0.996754
0.999384
0.996328
0.999521
0.94272
0.99919
0.999996
0.999956
1
0.999329
0.894115
0.943641
0.999955
0.999995
0.999033
0.990754
0.998486
0.891789
0.848732
0.242096
0.225648
0.640222
0.6221
0.748947
0.626299
0.613348
0.749334
0.300232
0.230475
0.73977
0.261754
0.71156
0.495711
0.505058
0.511241
0.584114
0.198342
0.0548404
0.279735
0.987229
0.961459
0.918923
0.974461
0.776872
0.448239
0.999853
0.997869
0.999822
0.316443
0.803927
0.725601
0.220669
0.651243
0.832241
0.219021
0.697184
0.0496339
0.278372
0.353457
0.709916
0.997084
0.989533
0.82955
0.687393
0.0852141
0.512084
0.739904
0.632408
0.845293
0.797019
0.858798
0.620866
0.309692
0.3069
0.305399
0.346458
0.484383
0.155308
0.641593
0.923966
0.973904
0.957153
0.959917
0.842148
0.786837
0.899267
0.190929
0.721701
0.247141
0.153207
0.549962
0.956586
0.914899
0.900336
0.977173
0.89906
0.923403
0.268903
0.0722644
0.236626
0.428731
0.203558
0.220186
0.371577
0.816535
0.963575
0.416054
0.553623
0.686028
0.986732
0.995999
0.953164
0.955517
0.983335
0.906105
0.697109
0.867748
0.764149
0.925892
0.956318
0.73622
0.746393
0.943219
0.915764
0.943611
0.983325
0.490763
0.581393
0.168861
0.804779
0.898325
0.939235
0.934351
0.918943
0.990403
0.919271
0.322742
0.672015
0.989472
0.891284
0.996527
0.996375
0.987406
0.984151
0.955507
0.958762
0.87558
0.96178
0.928275
0.980802
0.975747
0.915865
0.969062
0.927937
0.980662
0.974789
0.999995
1
1
1
0.999996
0.999999
0.99999
0.999993
0.999928
0.999978
0.999996
0.999899
0.999904
0.998751
0.999604
0.997725
0.997053
0.995636
0.957833
0.986545
0.992083
0.997523
0.999651
0.996306
0.995457
0.98942
0.997447
0.999647
0.983637
0.990639
0.998539
0.834347
0.943152
0.913075
0.978969
0.9949
0.999004
0.995035
0.9908
0.998491
0.953643
0.955079
0.859896
0.856146
0.843488
0.726473
0.941313
0.907815
0.758526
0.831373
0.824107
0.613193
0.987467
0.962313
0.922574
0.975603
0.876582
0.782767
0.999735
0.998788
0.995785
0.990147
0.999895
0.996913
0.999973
0.955484
0.98487
0.999491
0.999936
0.681181
0.914478
0.765144
0.997473
0.999727
0.99941
0.994091
0.681271
0.733596
0.816737
0.501004
0.526769
0.995212
0.977802
0.999006
0.971618
0.979222
0.967931
0.887888
0.888383
0.996318
0.999307
0.999878
0.999704
0.999965
0.999913
0.999999
1
0.998413
0.992343
0.999999
1
0.718957
0.593682
0.535182
0.637922
0.518555
0.283824
0.147041
0.438562
0.377783
0.766401
0.976912
0.991366
0.961819
0.919848
0.517852
0.407888
0.424018
0.831167
0.706034
0.735588
0.685837
0.825756
0.605234
0.101154
0.417473
0.68113
0.855687
0.848424
0.65445
0.281055
0.205087
0.505469
0.0934666
0.454411
0.594902
0.676657
0.807333
0.903188
0.88932
0.199175
0.604623
0.154077
0.906341
0.979787
0.958026
0.987114
0.999986
1
0.999999
0.955111
0.957243
0.884912
0.999792
0.998418
0.999812
0.999759
0.929263
0.944865
0.816646
0.829667
0.754751
0.16995
0.423592
0.683506
1
1
0.998955
0.99922
0.97702
0.999294
0.996329
0.878632
0.95494
0.988271
0.999998
0.999782
0.999973
0.99892
0.998796
0.996259
1
0.999962
0.999997
0.990248
0.913579
0.956592
0.900093
0.956851
0.967799
0.838629
0.636827
0.602059
0.984701
0.928407
0.989656
0.947402
0.975191
0.945126
0.916422
0.957085
0.974284
0.917405
0.955771
0.993733
0.981794
0.999312
0.996295
0.999637
0.997462
0.999975
1
1
1
0.998762
0.996664
1
0.99996
0.722966
0.701739
0.925402
0.999162
0.999114
0.956147
0.989967
0.937533
0.937626
0.9777
0.881102
0.894449
0.923009
0.669807
0.450031
0.736778
0.716858
0.87058
0.226935
0.642013
0.2005
0.55747
0.357542
0.0945908
0.868751
0.998632
0.999912
0.999989
1
1
0.982386
0.99623
0.997601
0.99973
0.99999
0.783347
0.999096
0.999879
0.999595
0.412327
0.630455
0.182084
0.999736
0.912124
0.425907
0.66254
0.725008
0.997276
0.991667
0.916029
0.805516
0.677783
0.89162
0.258723
0.628695
0.717124
0.29874
0.397407
0.0693781
0.441325
0.950544
0.904665
0.89966
0.374935
0.522813
0.249607
0.540821
0.456149
0.568444
0.139667
0.400278
0.123727
0.455207
0.71993
0.714991
0.323488
0.607119
0.0624276
0.683076
0.388575
0.375726
0.642089
0.707964
0.823242
0.827229
0.954891
0.23187
0.81152
0.736168
0.570706
0.520114
0.261882
0.474109
0.920361
0.986013
0.974525
0.87052
0.808573
0.732326
0.843911
0.351505
0.448869
0.249224
0.11608
0.12896
0.692989
0.64662
0.827728
0.842387
0.915452
0.517943
0.632464
0.677766
0.517882
0.632455
0.997934
0.587095
0.999966
0.99969
0.978369
0.974716
0.542795
0.696162
0.225876
0.999136
0.999885
0.999608
0.8334
0.81266
0.69861
0.806385
0.843798
0.781826
0.620685
0.157006
0.665363
0.998565
0.991667
0.998664
0.251342
0.306472
0.503617
0.305377
0.647533
0.597235
0.660435
0.996331
0.746142
0.692438
0.542594
0.695631
0.225527
0.233111
0.631171
0.613363
0.272978
0.541037
0.407011
0.309088
0.782222
0.997939
0.999698
0.999494
0.828593
0.848051
0.733459
0.874144
0.770172
0.925589
0.542934
0.407204
0.312509
0.272842
0.997938
0.999698
0.999493
0.782239
0.733447
0.874193
0.770188
0.846982
0.828705
0.848116
0.692445
0.746144
0.542597
0.695639
0.225541
0.851101
0.784485
0.748173
0.892841
0.182439
0.688452
0.597238
0.647535
0.455804
0.800903
0.182195
0.251352
0.305375
0.306472
0.0509085
0.213229
0.542795
0.696162
0.225876
0.783347
0.999136
0.999885
0.999608
0.81266
0.69861
0.806385
0.843798
0.999096
0.999879
0.999595
0.781826
0.648047
0.346538
0.688396
0.620685
0.172258
0.630454
0.157006
0.66536
0.493075
0.615788
0.499581
0.339472
0.179931
0.987872
0.86183
0.851583
0.987821
0.857675
0.408406
0.746994
0.966797
0.759446
0.619829
0.891425
0.745674
0.687245
0.591811
0.814014
0.826181
0.591893
0.826178
0.891616
0.689264
0.524379
0.561726
0.635925
0.997651
0.996233
0.524454
0.688687
0.99983
0.999275
0.223589
0.999979
0.999953
0.999871
0.962188
0.773146
0.87626
0.988322
0.994633
0.96692
0.236846
0.811454
0.73286
0.846264
0.99941
0.999751
0.999919
0.999922
0.851373
0.999652
0.999905
0.999891
0.999633
0.628309
0.237276
0.236839
0.34399
0.366522
0.0421702
0.88383
0.683583
0.70091
0.439465
0.280884
0.393865
0.372198
0.174743
0.913228
0.975209
0.877206
0.942959
0.97818
0.858652
0.934099
0.971904
0.859766
0.880581
0.276665
0.513192
0.692393
0.357251
0.870525
0.580564
0.840406
0.999777
0.999918
0.365952
0.238188
0.628528
0.23733
0.999905
0.837768
0.812009
0.732734
0.846719
0.999942
0.99975
0.999917
0.999922
0.851355
0.999631
0.999901
0.999884
0.998158
0.999635
0.351396
0.44459
0.62828
0.23726
0.23682
0.999976
0.999949
0.891695
0.746014
0.687639
0.759138
0.960657
0.999747
0.999857
0.561699
0.635875
0.980019
0.89352
0.969373
0.990257
0.976733
0.995611
0.999988
0.99995
0.994007
0.999153
0.9995
0.991485
0.987845
0.935298
0.935255
0.988796
0.99166
0.991416
0.991504
0.997395
0.987188
0.796402
0.968621
0.949854
0.999999
0.999979
0.999971
0.999652
0.999964
0.999995
0.999999
1
0.999998
1
0.999999
0.123924
0.887054
0.99657
0.986217
0.997879
0.150568
0.779609
0.666972
0.719945
0.999656
0.999875
0.846979
0.707812
0.815459
0.201258
0.247394
0.341332
0.40164
0.56663
0.98952
0.936963
0.955637
0.804984
0.744322
0.540321
0.529326
0.233708
0.325778
0.551375
0.843964
0.752964
0.849265
0.999578
0.999948
0.99999
0.999995
0.99999
0.999995
1
0.999998
0.744322
0.540321
0.529326
0.22304
0.306367
0.996606
0.98623
0.997895
0.886694
0.151272
0.233708
0.551375
0.752964
0.912479
0.644769
0.813433
0.936963
0.955637
0.804984
0.150523
0.999677
0.999669
0.999906
0.999894
0.999889
0.341332
0.201259
0.247394
0.40164
0.130442
0.24918
0.622351
0.886435
0.966775
0.993634
0.99516
0.998434
0.890939
0.993632
0.995161
0.998434
0.88645
0.999656
0.999875
0.13044
0.999889
0.999677
0.999906
0.999894
0.77961
0.666972
0.679659
0.719943
0.174
0.324287
0.150526
0.136764
0.150568
0.189977
0.22304
0.306367
0.123924
0.887054
0.996606
0.997895
0.99657
0.986217
0.997879
0.886694
0.151272
0.91248
0.644769
0.813433
0.895085
0.896647
0.998631
0.991454
0.998485
0.984971
0.997861
0.978134
0.954857
0.990799
0.999188
0.987877
0.963712
0.99223
0.999197
0.987978
0.997154
0.963771
0.999414
0.92408
0.909826
0.240164
0.999877
0.999815
0.999936
0.999717
0.999906
0.999903
0.999881
0.911512
0.515486
0.240055
0.24027
0.918546
0.908388
0.240089
0.273345
0.963085
0.919969
0.909652
0.515296
0.715822
0.489531
0.244975
0.881111
0.894932
0.984927
0.914721
0.947864
0.98358
0.899873
0.936139
0.858404
0.169851
0.0738632
0.223707
0.998763
0.99928
0.999938
0.90869
0.515096
0.240076
0.273333
0.999934
0.99988
0.99987
0.999522
0.999846
0.999944
0.999815
0.999936
0.999697
0.999899
0.999896
0.99988
0.240031
0.652271
0.273239
0.964951
0.926986
0.911549
0.51552
0.993528
0.999974
0.99351
0.999979
0.999945
0.994105
0.961419
0.991854
0.999912
0.999994
0.785307
0.653452
0.998112
0.998415
0.777847
0.999656
0.999352
0.865903
0.931591
0.522408
0.374537
0.629663
0.925665
0.752909
0.913974
0.999978
0.999631
0.990033
0.997755
0.840096
0.837905
0.762407
0.860635
0.490134
0.710717
0.119976
0.446468
0.146871
0.0456926
0.146752
0.264484
0.697801
0.543167
0.314175
0.179659
0.331964
0.522032
0.126921
0.199267
0.27653
0.567788
0.0937764
0.110567
0.186825
0.742365
0.762564
0.847633
0.916752
0.733676
0.443283
0.0704431
0.25853
0.681278
0.274402
0.273872
0.999312
0.958592
0.928297
0.805297
0.869956
0.898577
0.805523
0.481401
0.772251
0.961265
0.990779
0.976811
0.918876
0.887964
0.806904
0.465397
0.764626
0.796007
0.712851
0.941732
0.271483
0.552063
0.413142
0.575882
0.626254
0.650584
0.777494
0.914225
0.877853
0.868114
0.242057
0.590627
0.41002
0.580517
0.0899159
0.493823
0.360083
0.418236
0.981445
0.960917
0.841085
0.773779
0.978451
0.294629
0.716042
0.29841
0.892893
0.835948
0.756332
0.956135
0.460587
0.614989
0.675917
0.357476
0.933007
0.960181
0.966416
0.802417
0.600767
0.668107
0.763142
0.152984
0.36496
0.874776
0.572999
0.0813969
0.215065
0.0391857
0.948318
0.980768
0.855112
0.78876
0.998028
0.968635
0.991581
0.925896
0.679641
0.710216
0.842249
0.901239
0.833178
0.786735
0.905451
0.894689
0.860216
0.856179
0.823429
0.793066
0.729696
0.229636
0.971206
0.565649
0.220792
0.791411
0.907363
0.975051
0.397895
0.457607
0.0881093
0.92927
0.609394
0.622943
0.196024
0.736805
0.305293
0.899566
0.835581
0.371204
0.504094
0.181754
0.842201
0.984479
0.994674
0.981019
0.990093
0.996648
0.917818
0.515101
0.92728
0.97557
0.986838
0.935582
0.990182
0.934914
0.957884
0.188263
0.0437152
0.0824339
0.0387187
0.464801
0.980881
0.493533
0.662937
0.461217
0.664414
0.393913
0.723923
0.998817
0.994278
0.997576
0.999097
0.986362
0.888603
0.978295
0.997432
0.997897
0.99578
0.723589
0.312906
0.896628
0.973592
0.923299
0.732264
0.999983
0.999203
0.999875
0.975191
0.985696
0.883691
0.959737
0.474112
0.760362
0.191511
0.74234
0.902556
0.855808
0.591837
0.715389
0.682897
0.818225
0.999965
0.999996
0.999935
0.999705
0.915751
0.867316
0.731422
0.994809
0.993085
0.980596
0.987525
0.90399
0.959516
0.842844
0.956188
0.639263
0.259222
0.242534
0.635632
0.234283
0.239998
0.220218
0.47949
0.801249
0.988074
0.969151
0.999375
0.987571
0.983152
0.920135
0.993776
0.94231
0.731015
0.724671
0.739909
0.998218
0.996211
0.987402
0.986888
0.959322
0.988903
0.975963
0.976948
0.984227
0.999997
0.999349
0.996151
0.999721
0.997821
0.974347
0.974881
0.996633
0.998323
0.9682
0.642124
0.737601
0.91806
0.22846
0.224117
0.884786
0.727133
0.88148
0.972879
0.209445
0.219424
0.977403
0.992173
0.972497
0.883023
0.91577
0.971481
0.87919
0.998973
0.912725
0.994491
0.997042
0.925664
0.752914
0.914018
0.9774
0.992172
0.989038
0.999866
0.999978
0.990091
0.983507
0.876819
0.955351
0.961145
0.999255
0.989083