/*--------------------------------*- C++ -*----------------------------------*\
| =========                 |                                                 |
| \\      /  F ield         | OpenFOAM: The Open Source CFD Toolbox           |
|  \\    /   O peration     | Version:  v1912                                 |
|   \\  /    A nd           | Website:  www.openfoam.com                      |
|    \\/     M anipulation  |                                                 |
\*---------------------------------------------------------------------------*/
FoamFile
{
    version     2.0;
    format      ascii;
    class       volScalarField;
    location    "6";
    object      p;
}
// * * * * * * * * * * * * * * * * * * * * * * * * * * * * * * * * * * * * * //

dimensions      [0 2 -2 0 0 0 0];


internalField   nonuniform List<scalar> 
400
(
-3.18007e-06
0.791009
1.17683
1.12722
0.697406
-0.0229181
-0.960595
-2.05322
-3.2428
-4.491
-5.79845
-7.16145
-8.53824
-9.87237
-11.0992
-12.1393
-12.8932
-13.2239
-12.989
-12.0951
-0.596467
-0.00150465
0.29939
0.246862
-0.124611
-0.738453
-1.5386
-2.47728
-3.4997
-4.56866
-5.69661
-6.88601
-8.0918
-9.25786
-10.327
-11.2302
-11.8839
-12.1674
-11.9673
-11.2349
-0.709648
-0.35437
-0.174542
-0.275333
-0.64088
-1.20462
-1.92278
-2.75939
-3.66406
-4.60216
-5.59611
-6.65765
-7.74253
-8.79566
-9.76819
-10.6015
-11.2272
-11.5425
-11.4656
-11.001
-0.596799
-0.477858
-0.445053
-0.624709
-1.01508
-1.56053
-2.22925
-2.99594
-3.81689
-4.65991
-5.55434
-6.52258
-7.52334
-8.50285
-9.42004
-10.2264
-10.8677
-11.2586
-11.3443
-11.1733
-0.377324
-0.47048
-0.584435
-0.853908
-1.28528
-1.83326
-2.47734
-3.20129
-3.96942
-4.7518
-5.58065
-6.48746
-7.43547
-8.37275
-9.26401
-10.0695
-10.7494
-11.2347
-11.4894
-11.5973
-0.0963343
-0.37793
-0.627941
-0.986916
-1.46662
-2.0304
-2.66833
-3.37192
-4.11426
-4.86849
-5.66396
-6.53609
-7.45496
-8.37198
-9.25633
-10.0775
-10.8074
-11.389
-11.8018
-12.1606
0.219112
-0.231487
-0.603855
-1.04753
-1.5793
-2.16845
-2.81422
-3.51439
-4.25081
-5.00143
-5.78862
-6.64598
-7.55265
-8.46554
-9.35693
-10.2028
-10.9859
-11.6595
-12.2137
-12.7913
0.530403
-0.0670457
-0.546001
-1.06703
-1.6515
-2.27163
-2.93395
-3.64075
-4.38182
-5.14085
-5.93205
-6.78505
-7.68883
-8.60697
-9.51336
-10.3897
-11.2262
-11.9808
-12.6531
-13.4124
0.802781
0.0849241
-0.480076
-1.06523
-1.69657
-2.34686
-3.02822
-3.74639
-4.49826
-5.27148
-6.07558
-6.93144
-7.83599
-8.76341
-9.68671
-10.5911
-11.4724
-12.2914
-13.0551
-13.9515
1.00938
0.204348
-0.419889
-1.04948
-1.71598
-2.39088
-3.09034
-3.82257
-4.58918
-5.38225
-6.20613
-7.07483
-7.985
-8.91983
-9.8581
-10.783
-11.6938
-12.5525
-13.372
-14.3548
1.12516
0.273889
-0.377381
-1.02688
-1.71266
-2.40338
-3.11766
-3.8653
-4.64952
-5.4672
-6.31795
-7.20741
-8.13286
-9.07652
-10.0206
-10.9532
-11.872
-12.7389
-13.5727
-14.5862
1.13636
0.280896
-0.364695
-1.00677
-1.69138
-2.38625
-3.11077
-3.87423
-4.67971
-5.52436
-6.40748
-7.32756
-8.27577
-9.23308
-10.1792
-11.1006
-11.9994
-12.8381
-13.6404
-14.6249
1.04635
0.229425
-0.379782
-0.993522
-1.66056
-2.34744
-3.07394
-3.85227
-4.68282
-5.55869
-6.47622
-7.43351
-8.4139
-9.3905
-10.3368
-11.2335
-12.0825
-12.8515
-13.5741
-14.4672
0.839445
0.111993
-0.425401
-0.988652
-1.62178
-2.29309
-3.01665
-3.80572
-4.66338
-5.5758
-6.53282
-7.52874
-8.54671
-9.55077
-10.4983
-11.362
-12.1376
-12.7973
-13.3897
-14.1285
0.478179
-0.0920057
-0.507938
-0.986795
-1.56946
-2.21751
-2.93583
-3.7358
-4.62266
-5.57949
-6.58508
-7.62846
-8.68737
-9.72146
-10.6774
-11.5054
-12.1903
-12.7089
-13.1212
-13.6423
-0.0399185
-0.363223
-0.598099
-0.958616
-1.47725
-2.10058
-2.8185
-3.6392
-4.56853
-5.5833
-6.65065
-7.75312
-8.86526
-9.93678
-10.9029
-11.6967
-12.2815
-12.6341
-12.8201
-13.0556
-0.691843
-0.656876
-0.638707
-0.845316
-1.28848
-1.89804
-2.63931
-3.50821
-4.50696
-5.6037
-6.76183
-7.95221
-9.13795
-10.2598
-11.2406
-12.0015
-12.4809
-12.6396
-12.5415
-12.4043
-1.50227
-0.90628
-0.542539
-0.56782
-0.938583
-1.55687
-2.35851
-3.31685
-4.42452
-5.64772
-6.94127
-8.26299
-9.56513
-10.7721
-11.7872
-12.514
-12.8726
-12.8059
-12.3329
-11.6511
-2.55847
-0.956867
-0.12601
0.0103558
-0.334741
-1.01241
-1.93169
-3.0323
-4.29633
-5.69601
-7.17956
-8.69373
-10.1683
-11.5088
-12.6014
-13.3277
-13.5831
-13.2698
-12.265
-10.6077
-3.57649
-0.337109
1.0415
1.21052
0.739067
-0.116104
-1.24099
-2.56849
-4.06789
-5.71169
-7.45036
-9.22713
-10.9709
-12.5636
-13.8382
-14.6495
-14.8781
-14.3517
-12.6522
-9.31886
)
;

boundaryField
{
    movingWall
    {
        type            zeroGradient;
    }
    fixedWalls
    {
        type            zeroGradient;
    }
    frontAndBack
    {
        type            empty;
    }
}


// ************************************************************************* //
