/*--------------------------------*- C++ -*----------------------------------*\
| =========                 |                                                 |
| \\      /  F ield         | OpenFOAM: The Open Source CFD Toolbox           |
|  \\    /   O peration     | Version:  v1912                                 |
|   \\  /    A nd           | Website:  www.openfoam.com                      |
|    \\/     M anipulation  |                                                 |
\*---------------------------------------------------------------------------*/
FoamFile
{
    version     2.0;
    format      ascii;
    class       surfaceScalarField;
    location    "6";
    object      phi;
}
// * * * * * * * * * * * * * * * * * * * * * * * * * * * * * * * * * * * * * //

dimensions      [0 3 -1 0 0 0 0];
oriented        oriented;


internalField   nonuniform List<scalar> 
760
(
5.36127e-06
-5.36122e-06
1.62218e-05
-1.08606e-05
2.81053e-05
-1.18835e-05
3.9622e-05
-1.15168e-05
5.00317e-05
-1.04097e-05
5.88642e-05
-8.83241e-06
6.58508e-05
-6.9866e-06
7.08864e-05
-5.03564e-06
7.4046e-05
-3.15957e-06
7.54634e-05
-1.41744e-06
7.51435e-05
3.19927e-07
7.29752e-05
2.16833e-06
6.88822e-05
4.09296e-06
6.2859e-05
6.02324e-06
5.49341e-05
7.9249e-06
4.5172e-05
9.76206e-06
3.36727e-05
1.14993e-05
2.06301e-05
1.30426e-05
7.15378e-06
1.34763e-05
7.15376e-06
7.8792e-06
-1.32404e-05
2.08553e-05
-2.38366e-05
3.42009e-05
-2.52292e-05
4.68461e-05
-2.4162e-05
5.82793e-05
-2.1843e-05
6.81334e-05
-1.86866e-05
7.61838e-05
-1.5037e-05
8.23219e-05
-1.11738e-05
8.65231e-05
-7.36074e-06
8.87894e-05
-3.68375e-06
8.91053e-05
4.03435e-09
8.73936e-05
3.87993e-06
8.35416e-05
7.94502e-06
7.74472e-05
1.21176e-05
6.90148e-05
1.63573e-05
5.81621e-05
2.06147e-05
4.48323e-05
2.48292e-05
2.89893e-05
2.88856e-05
1.15003e-05
3.09653e-05
1.8654e-05
4.44801e-06
-1.76884e-05
1.14632e-05
-3.08518e-05
1.82309e-05
-3.19969e-05
2.45748e-05
-3.05058e-05
3.04743e-05
-2.77425e-05
3.58335e-05
-2.40458e-05
4.053e-05
-1.97336e-05
4.44406e-05
-1.50844e-05
4.74271e-05
-1.03472e-05
4.9395e-05
-5.65171e-06
5.03163e-05
-9.1724e-07
5.01544e-05
4.04181e-06
4.88355e-05
9.26394e-06
4.62496e-05
1.47034e-05
4.22555e-05
2.03514e-05
3.66722e-05
2.61981e-05
2.92668e-05
3.22345e-05
1.97255e-05
3.84269e-05
8.1654e-06
4.25254e-05
2.68194e-05
1.66322e-06
-1.93516e-05
3.8872e-06
-3.30758e-05
5.6108e-06
-3.37206e-05
7.17479e-06
-3.20698e-05
8.81583e-06
-2.93835e-05
1.05896e-05
-2.58196e-05
1.2441e-05
-2.15849e-05
1.42513e-05
-1.68948e-05
1.58384e-05
-1.19343e-05
1.70512e-05
-6.86453e-06
1.78746e-05
-1.74054e-06
1.8367e-05
3.5494e-06
1.85415e-05
9.08944e-06
1.8339e-05
1.49059e-05
1.76424e-05
2.1048e-05
1.62542e-05
2.75863e-05
1.38743e-05
3.46144e-05
1.00581e-05
4.2243e-05
4.46009e-06
4.81234e-05
3.12795e-05
-1.53236e-07
-1.91984e-05
-1.18738e-06
-3.20416e-05
-2.89852e-06
-3.20095e-05
-4.67404e-06
-3.02943e-05
-6.1392e-06
-2.79183e-05
-7.12787e-06
-2.48309e-05
-7.61823e-06
-2.10946e-05
-7.68353e-06
-1.68295e-05
-7.48211e-06
-1.21357e-05
-7.16428e-06
-7.18237e-06
-6.71627e-06
-2.18857e-06
-5.99251e-06
2.82563e-06
-4.90053e-06
7.99749e-06
-3.45104e-06
1.34564e-05
-1.74337e-06
1.93403e-05
4.12455e-09
2.58388e-05
1.44794e-06
3.31706e-05
2.10538e-06
4.15855e-05
1.36315e-06
4.88657e-05
3.26427e-05
-1.61537e-06
-1.75831e-05
-5.20624e-06
-2.84507e-05
-9.58231e-06
-2.76334e-05
-1.40251e-05
-2.58516e-05
-1.80933e-05
-2.38501e-05
-2.15277e-05
-2.13965e-05
-2.42054e-05
-1.84169e-05
-2.6101e-05
-1.49339e-05
-2.72717e-05
-1.0965e-05
-2.77991e-05
-6.65493e-06
-2.76458e-05
-2.34184e-06
-2.66468e-05
1.82665e-06
-2.46878e-05
6.0384e-06
-2.17712e-05
1.05398e-05
-1.80031e-05
1.55723e-05
-1.36058e-05
2.14414e-05
-8.94822e-06
2.85131e-05
-4.56979e-06
3.72071e-05
-1.24914e-06
4.5545e-05
3.13935e-05
-3.01588e-06
-1.45672e-05
-8.86694e-06
-2.25996e-05
-1.55038e-05
-2.09965e-05
-2.21995e-05
-1.91559e-05
-2.8504e-05
-1.75456e-05
-3.40933e-05
-1.58072e-05
-3.87484e-05
-1.37618e-05
-4.23316e-05
-1.13506e-05
-4.47733e-05
-8.52321e-06
-4.60459e-05
-5.38239e-06
-4.6091e-05
-2.29663e-06
-4.47742e-05
5.09832e-07
-4.19899e-05
3.25409e-06
-3.77442e-05
6.29406e-06
-3.21486e-05
9.9767e-06
-2.54529e-05
1.47458e-05
-1.80459e-05
2.11061e-05
-1.04633e-05
2.96246e-05
-3.59083e-06
3.86725e-05
2.78027e-05
-4.27999e-06
-1.02872e-05
-1.20573e-05
-1.48223e-05
-2.04705e-05
-1.25832e-05
-2.88252e-05
-1.08012e-05
-3.67206e-05
-9.65015e-06
-4.38179e-05
-8.70985e-06
-4.98465e-05
-7.73321e-06
-5.45987e-05
-6.59835e-06
-5.79214e-05
-5.20045e-06
-5.97105e-05
-3.59328e-06
-5.99172e-05
-2.09001e-06
-5.84505e-05
-9.56887e-07
-5.51766e-05
-1.98047e-08
-5.00784e-05
1.19592e-06
-4.32469e-05
3.14525e-06
-3.48972e-05
6.39601e-06
-2.54044e-05
1.16133e-05
-1.53073e-05
1.95275e-05
-5.55951e-06
2.89248e-05
2.22432e-05
-5.32259e-06
-4.9646e-06
-1.46244e-05
-5.52054e-06
-2.4319e-05
-2.88861e-06
-3.37569e-05
-1.36329e-06
-4.26189e-05
-7.88112e-07
-5.05901e-05
-7.38648e-07
-5.73884e-05
-9.34893e-07
-6.27755e-05
-1.21119e-06
-6.65425e-05
-1.43348e-06
-6.85663e-05
-1.56947e-06
-6.87958e-05
-1.86054e-06
-6.72227e-05
-2.52996e-06
-6.3743e-05
-3.49948e-06
-5.82351e-05
-4.31199e-06
-5.07521e-05
-4.33774e-06
-4.14593e-05
-2.89673e-06
-3.06727e-05
8.2668e-07
-1.88678e-05
7.72259e-06
-7.03414e-06
1.70911e-05
1.52091e-05
-6.10345e-06
1.13887e-06
-1.65329e-05
4.90884e-06
-2.71254e-05
7.70391e-06
-3.72558e-05
8.7671e-06
-4.66761e-05
8.63224e-06
-5.51009e-05
7.68614e-06
-6.22549e-05
6.21913e-06
-6.78943e-05
4.42818e-06
-7.17911e-05
2.46334e-06
-7.37977e-05
4.37048e-07
-7.3894e-05
-1.76423e-06
-7.21044e-05
-4.31957e-06
-6.84507e-05
-7.15315e-06
-6.28133e-05
-9.94935e-06
-5.50917e-05
-1.20594e-05
-4.53779e-05
-1.26105e-05
-3.39161e-05
-1.06351e-05
-2.1116e-05
-5.07751e-06
-7.98004e-06
3.95515e-06
7.22903e-06
-6.53899e-06
7.67787e-06
-1.76192e-05
1.5989e-05
-2.8742e-05
1.88266e-05
-3.92549e-05
1.92801e-05
-4.89341e-05
1.83115e-05
-5.75075e-05
1.62595e-05
-6.47112e-05
1.34228e-05
-7.03163e-05
1.00333e-05
-7.41235e-05
6.2705e-06
-7.5954e-05
2.26755e-06
-7.57869e-05
-1.93127e-06
-7.37178e-05
-6.38872e-06
-6.98015e-05
-1.10694e-05
-6.40633e-05
-1.56876e-05
-5.64052e-05
-1.97174e-05
-4.6732e-05
-2.22837e-05
-3.5166e-05
-2.22012e-05
-2.20507e-05
-1.81928e-05
-8.38941e-06
-9.7061e-06
-1.16038e-06
-6.61402e-06
1.42919e-05
-1.78232e-05
2.71982e-05
-2.89828e-05
2.99862e-05
-3.94787e-05
2.97759e-05
-4.90821e-05
2.79149e-05
-5.75194e-05
2.46968e-05
-6.44934e-05
2.03968e-05
-6.98054e-05
1.53453e-05
-7.33168e-05
9.78192e-06
-7.48943e-05
3.84509e-06
-7.44619e-05
-2.3637e-06
-7.21116e-05
-8.73898e-06
-6.79885e-05
-1.51925e-05
-6.21776e-05
-2.14985e-05
-5.46895e-05
-2.72055e-05
-4.54347e-05
-3.15385e-05
-3.43492e-05
-3.32867e-05
-2.1622e-05
-3.09199e-05
-8.24389e-06
-2.30843e-05
-9.40428e-06
-6.43711e-06
2.0729e-05
-1.72206e-05
3.79817e-05
-2.78417e-05
4.06074e-05
-3.77266e-05
3.96608e-05
-4.66581e-05
3.68464e-05
-5.44206e-05
3.24592e-05
-6.07685e-05
2.67447e-05
-6.54744e-05
2.00512e-05
-6.84567e-05
1.27642e-05
-6.96693e-05
5.05768e-06
-6.90599e-05
-2.97311e-06
-6.66253e-05
-1.11735e-05
-6.25161e-05
-1.93018e-05
-5.68999e-05
-2.71147e-05
-4.985e-05
-3.42554e-05
-4.13601e-05
-4.00284e-05
-3.13329e-05
-4.33139e-05
-1.97711e-05
-4.24817e-05
-7.53332e-06
-3.5322e-05
-1.69376e-05
-5.98053e-06
2.67096e-05
-1.57033e-05
4.77045e-05
-2.50674e-05
4.99715e-05
-3.34641e-05
4.80575e-05
-4.08122e-05
4.41945e-05
-4.70213e-05
3.86683e-05
-5.20028e-05
3.17262e-05
-5.56238e-05
2.36721e-05
-5.77918e-05
1.49323e-05
-5.8527e-05
5.79282e-06
-5.78174e-05
-3.68272e-06
-5.56633e-05
-1.33276e-05
-5.20944e-05
-2.28706e-05
-4.72485e-05
-3.19606e-05
-4.12943e-05
-4.02096e-05
-3.42303e-05
-4.70924e-05
-2.59791e-05
-5.15652e-05
-1.6454e-05
-5.20068e-05
-6.28048e-06
-4.54956e-05
-2.32181e-05
-4.93647e-06
3.1646e-05
-1.25761e-05
5.53442e-05
-1.94922e-05
5.68876e-05
-2.5148e-05
5.37133e-05
-2.96255e-05
4.8672e-05
-3.31382e-05
4.2181e-05
-3.58096e-05
3.43976e-05
-3.77038e-05
2.55662e-05
-3.87855e-05
1.60141e-05
-3.90458e-05
6.05306e-06
-3.84857e-05
-4.24271e-06
-3.7083e-05
-1.47302e-05
-3.48405e-05
-2.51131e-05
-3.17727e-05
-3.50284e-05
-2.79474e-05
-4.40349e-05
-2.34221e-05
-5.16177e-05
-1.80645e-05
-5.69228e-05
-1.16766e-05
-5.83948e-05
-4.57173e-06
-5.26004e-05
-2.77898e-05
-3.26051e-06
3.49065e-05
-7.43308e-06
5.95167e-05
-1.02624e-05
5.97169e-05
-1.1555e-05
5.50059e-05
-1.1665e-05
4.8782e-05
-1.11449e-05
4.16609e-05
-1.0456e-05
3.37087e-05
-9.85227e-06
2.49625e-05
-9.4096e-06
1.55714e-05
-9.10473e-06
5.74822e-06
-8.97694e-06
-4.37049e-06
-8.98184e-06
-1.47254e-05
-9.00524e-06
-2.50897e-05
-8.93727e-06
-3.50963e-05
-8.70456e-06
-4.42675e-05
-8.27266e-06
-5.20496e-05
-7.39714e-06
-5.77984e-05
-5.57836e-06
-6.02135e-05
-2.5692e-06
-5.56096e-05
-3.0359e-05
-9.29158e-07
3.58357e-05
1.96336e-07
5.83912e-05
3.38889e-06
5.65243e-05
8.02768e-06
5.03672e-05
1.33743e-05
4.34354e-05
1.87383e-05
3.62969e-05
2.34692e-05
2.89777e-05
2.71555e-05
2.12763e-05
2.95895e-05
1.31374e-05
3.06755e-05
4.66214e-06
3.03798e-05
-4.07481e-06
2.87436e-05
-1.30891e-05
2.58828e-05
-2.22288e-05
2.19742e-05
-3.11877e-05
1.7225e-05
-3.95183e-05
1.19343e-05
-4.67589e-05
6.59782e-06
-5.24619e-05
2.10519e-06
-5.57209e-05
-2.98899e-07
-5.32055e-05
-3.06579e-05
3.28889e-06
3.25468e-05
1.31336e-05
4.85466e-05
2.51147e-05
4.45432e-05
3.73199e-05
3.81619e-05
4.88383e-05
3.1917e-05
5.91373e-05
2.59979e-05
6.7731e-05
2.0384e-05
7.42697e-05
1.47376e-05
7.85224e-05
8.88476e-06
8.033e-05
2.85453e-06
7.95935e-05
-3.33821e-06
7.62437e-05
-9.73936e-06
7.03687e-05
-1.63538e-05
6.21162e-05
-2.29352e-05
5.16817e-05
-2.90838e-05
3.94265e-05
-3.45038e-05
2.60603e-05
-3.90957e-05
1.30097e-05
-4.26702e-05
2.95677e-06
-4.31526e-05
-2.77011e-05
1.0938e-05
2.16088e-05
3.39237e-05
2.55608e-05
5.7348e-05
2.11189e-05
7.82802e-05
1.72297e-05
9.61414e-05
1.40559e-05
0.000110918
1.12214e-05
0.000122661
8.64032e-06
0.000131212
6.18685e-06
0.000136419
3.67826e-06
0.000138195
1.07832e-06
0.000136455
-1.59833e-06
0.000131084
-4.36816e-06
0.000121903
-7.17315e-06
0.000108896
-9.92785e-06
9.24019e-05
-1.25901e-05
7.29497e-05
-1.50516e-05
5.12032e-05
-1.73492e-05
2.84368e-05
-1.99038e-05
8.21804e-06
-2.29339e-05
-1.94831e-05
2.16088e-05
4.71696e-05
6.82885e-05
8.55182e-05
9.95741e-05
0.000110796
0.000119436
0.000125623
0.000129301
0.000130379
0.000128781
0.000124413
0.00011724
0.000107312
9.47216e-05
7.967e-05
6.23208e-05
4.2417e-05
1.94831e-05
)
;

boundaryField
{
    movingWall
    {
        type            calculated;
        value           uniform 0;
    }
    fixedWalls
    {
        type            calculated;
        value           uniform 0;
    }
    frontAndBack
    {
        type            empty;
        value           nonuniform 0();
    }
}


// ************************************************************************* //
