/*--------------------------------*- C++ -*----------------------------------*\
| =========                 |                                                 |
| \\      /  F ield         | OpenFOAM: The Open Source CFD Toolbox           |
|  \\    /   O peration     | Version:  v1912                                 |
|   \\  /    A nd           | Website:  www.openfoam.com                      |
|    \\/     M anipulation  |                                                 |
\*---------------------------------------------------------------------------*/
FoamFile
{
    version     2.0;
    format      ascii;
    class       volVectorField;
    location    "6";
    object      U;
}
// * * * * * * * * * * * * * * * * * * * * * * * * * * * * * * * * * * * * * //

dimensions      [0 1 -1 0 0 0 0];


internalField   nonuniform List<vector> 
400
(
(0.0593768 -0.0682264 0)
(0.207589 -0.129971 0)
(0.442431 -0.142954 0)
(0.678866 -0.139657 0)
(0.901595 -0.126425 0)
(1.09615 -0.106906 0)
(1.25547 -0.0838902 0)
(1.37587 -0.0595806 0)
(1.45783 -0.0361439 0)
(1.50404 -0.0145315 0)
(1.51433 0.00677909 0)
(1.48951 0.0293037 0)
(1.42691 0.052482 0)
(1.32538 0.0754251 0)
(1.18523 0.0975678 0)
(1.00736 0.118251 0)
(0.792829 0.13668 0)
(0.546937 0.151225 0)
(0.273298 0.154274 0)
(0.082131 0.088028 0)
(0.0774344 -0.194567 0)
(0.284168 -0.36902 0)
(0.553028 -0.39773 0)
(0.812665 -0.382882 0)
(1.05665 -0.34536 0)
(1.27129 -0.293177 0)
(1.45137 -0.232662 0)
(1.59299 -0.16891 0)
(1.69788 -0.106955 0)
(1.76373 -0.0481007 0)
(1.78797 0.0107372 0)
(1.77381 0.072567 0)
(1.7189 0.137006 0)
(1.61963 0.202219 0)
(1.4744 0.267176 0)
(1.28141 0.330685 0)
(1.038 0.391371 0)
(0.748344 0.446433 0)
(0.407708 0.465561 0)
(0.119727 0.264473 0)
(0.0415333 -0.322356 0)
(0.163827 -0.571905 0)
(0.300548 -0.599903 0)
(0.427619 -0.573221 0)
(0.551526 -0.519412 0)
(0.664952 -0.446819 0)
(0.76637 -0.36265 0)
(0.852024 -0.272929 0)
(0.92367 -0.183128 0)
(0.974695 -0.0954854 0)
(1.00175 -0.00734095 0)
(1.00841 0.0853235 0)
(0.994678 0.18282 0)
(0.955996 0.283677 0)
(0.890671 0.387219 0)
(0.795625 0.492599 0)
(0.66532 0.598748 0)
(0.500454 0.703665 0)
(0.288508 0.76452 0)
(0.0833693 0.470717 0)
(0.0132762 -0.37936 0)
(0.0639794 -0.656407 0)
(0.0987154 -0.675867 0)
(0.125584 -0.644112 0)
(0.158226 -0.588259 0)
(0.192605 -0.513619 0)
(0.229555 -0.425715 0)
(0.265584 -0.329708 0)
(0.302613 -0.230129 0)
(0.33267 -0.129939 0)
(0.350667 -0.0286668 0)
(0.361884 0.0769277 0)
(0.369674 0.188045 0)
(0.369619 0.304336 0)
(0.361157 0.426028 0)
(0.341417 0.553517 0)
(0.303837 0.687566 0)
(0.247935 0.828781 0)
(0.157079 0.929739 0)
(0.0445249 0.594486 0)
(-0.00661542 -0.392522 0)
(-0.00280379 -0.663984 0)
(-0.0369085 -0.670973 0)
(-0.0786312 -0.637382 0)
(-0.110917 -0.586312 0)
(-0.135804 -0.518835 0)
(-0.15022 -0.437707 0)
(-0.156599 -0.346354 0)
(-0.152526 -0.247692 0)
(-0.144775 -0.14514 0)
(-0.139915 -0.0414856 0)
(-0.130992 0.0642627 0)
(-0.11182 0.174322 0)
(-0.0862797 0.290155 0)
(-0.0540805 0.413537 0)
(-0.017953 0.547005 0)
(0.0141358 0.693366 0)
(0.0417326 0.856248 0)
(0.0473315 0.989418 0)
(0.0105047 0.651225 0)
(-0.0235462 -0.37411 0)
(-0.0564805 -0.615873 0)
(-0.143629 -0.607781 0)
(-0.238955 -0.573022 0)
(-0.324147 -0.529253 0)
(-0.400131 -0.473443 0)
(-0.461439 -0.405376 0)
(-0.508354 -0.326439 0)
(-0.537293 -0.237776 0)
(-0.551758 -0.142674 0)
(-0.558061 -0.0469878 0)
(-0.549625 0.0474482 0)
(-0.519195 0.143895 0)
(-0.470158 0.246106 0)
(-0.402498 0.357813 0)
(-0.319267 0.48387 0)
(-0.228285 0.6303 0)
(-0.130771 0.803633 0)
(-0.0453115 0.961285 0)
(-0.0187985 0.651017 0)
(-0.0402076 -0.327352 0)
(-0.106709 -0.520073 0)
(-0.239325 -0.495587 0)
(-0.379859 -0.459207 0)
(-0.509882 -0.423075 0)
(-0.630303 -0.38096 0)
(-0.733536 -0.330147 0)
(-0.817442 -0.270173 0)
(-0.877115 -0.200647 0)
(-0.912464 -0.124134 0)
(-0.927367 -0.0480889 0)
(-0.917542 0.0236414 0)
(-0.875995 0.0952138 0)
(-0.805239 0.172668 0)
(-0.705935 0.261918 0)
(-0.581025 0.370443 0)
(-0.439802 0.506753 0)
(-0.282595 0.680826 0)
(-0.127609 0.85634 0)
(-0.0452127 0.60101 0)
(-0.0554116 -0.253653 0)
(-0.151604 -0.382142 0)
(-0.321366 -0.34279 0)
(-0.49623 -0.305885 0)
(-0.658377 -0.277968 0)
(-0.810067 -0.250913 0)
(-0.942505 -0.220266 0)
(-1.05193 -0.184109 0)
(-1.13296 -0.140809 0)
(-1.18305 -0.0920721 0)
(-1.20362 -0.0448953 0)
(-1.19373 -0.00455471 0)
(-1.14644 0.0333139 0)
(-1.06216 0.0771485 0)
(-0.94205 0.134853 0)
(-0.788401 0.216626 0)
(-0.609935 0.334213 0)
(-0.406244 0.500581 0)
(-0.19621 0.686776 0)
(-0.0678194 0.507611 0)
(-0.0683083 -0.15652 0)
(-0.188465 -0.209567 0)
(-0.386381 -0.159741 0)
(-0.584884 -0.125743 0)
(-0.766961 -0.107953 0)
(-0.937099 -0.097663 0)
(-1.08617 -0.0894402 0)
(-1.20954 -0.080321 0)
(-1.30219 -0.0678374 0)
(-1.35894 -0.0523015 0)
(-1.38248 -0.0394736 0)
(-1.36954 -0.0343283 0)
(-1.32088 -0.0346425 0)
(-1.23042 -0.030193 0)
(-1.09985 -0.0101476 0)
(-0.930478 0.0378093 0)
(-0.730181 0.128527 0)
(-0.496322 0.278246 0)
(-0.247414 0.467444 0)
(-0.0850139 0.379506 0)
(-0.0781819 -0.0408215 0)
(-0.216034 -0.0102089 0)
(-0.434265 0.0448961 0)
(-0.648926 0.0716195 0)
(-0.842956 0.076594 0)
(-1.02316 0.0681009 0)
(-1.1804 0.0518982 0)
(-1.3097 0.0316526 0)
(-1.40652 0.0102159 0)
(-1.46486 -0.0108153 0)
(-1.48622 -0.035281 0)
(-1.46973 -0.0673263 0)
(-1.41543 -0.105512 0)
(-1.32384 -0.14227 0)
(-1.18967 -0.16377 0)
(-1.01403 -0.154394 0)
(-0.803307 -0.0965429 0)
(-0.552585 0.029165 0)
(-0.280173 0.21433 0)
(-0.0962714 0.227076 0)
(-0.0840388 0.0870853 0)
(-0.231428 0.207357 0)
(-0.461459 0.263986 0)
(-0.685999 0.279605 0)
(-0.886022 0.268966 0)
(-1.07027 0.239449 0)
(-1.22946 0.196902 0)
(-1.3588 0.145459 0)
(-1.45403 0.0883491 0)
(-1.51092 0.028193 0)
(-1.5269 -0.0354884 0)
(-1.50472 -0.105551 0)
(-1.44502 -0.180838 0)
(-1.34809 -0.255726 0)
(-1.21514 -0.318312 0)
(-1.0412 -0.350095 0)
(-0.830331 -0.329327 0)
(-0.575191 -0.233019 0)
(-0.294269 -0.0571632 0)
(-0.101308 0.0610352 0)
(-0.0846213 0.219893 0)
(-0.235084 0.432011 0)
(-0.465296 0.488978 0)
(-0.691303 0.491857 0)
(-0.889747 0.463977 0)
(-1.07242 0.41138 0)
(-1.22783 0.340251 0)
(-1.35174 0.256039 0)
(-1.44064 0.162651 0)
(-1.49207 0.0627986 0)
(-1.50378 -0.0416695 0)
(-1.47519 -0.150098 0)
(-1.41037 -0.261927 0)
(-1.31036 -0.37172 0)
(-1.17754 -0.470208 0)
(-1.00993 -0.540777 0)
(-0.809684 -0.558353 0)
(-0.56287 -0.494657 0)
(-0.288984 -0.33122 0)
(-0.0998527 -0.107676 0)
(-0.0829531 0.352551 0)
(-0.227585 0.656377 0)
(-0.448327 0.710647 0)
(-0.662446 0.699273 0)
(-0.848617 0.652704 0)
(-1.01657 0.576838 0)
(-1.15957 0.476161 0)
(-1.27116 0.358129 0)
(-1.34821 0.228884 0)
(-1.39027 0.091328 0)
(-1.39661 -0.052378 0)
(-1.36674 -0.199258 0)
(-1.29984 -0.345805 0)
(-1.20238 -0.488101 0)
(-1.0748 -0.617736 0)
(-0.919088 -0.720153 0)
(-0.737269 -0.772168 0)
(-0.514023 -0.741097 0)
(-0.263753 -0.591266 0)
(-0.0918373 -0.267791 0)
(-0.0784096 0.478409 0)
(-0.207976 0.864087 0)
(-0.407173 0.914024 0)
(-0.592907 0.886842 0)
(-0.747554 0.820818 0)
(-0.884117 0.721186 0)
(-0.995978 0.593433 0)
(-1.08398 0.443975 0)
(-1.14179 0.281749 0)
(-1.17048 0.111195 0)
(-1.17093 -0.0660945 0)
(-1.14274 -0.246797 0)
(-1.08589 -0.425494 0)
(-1.00042 -0.596039 0)
(-0.891189 -0.751642 0)
(-0.760906 -0.879826 0)
(-0.61001 -0.958852 0)
(-0.426203 -0.956194 0)
(-0.218949 -0.819624 0)
(-0.0777423 -0.408098 0)
(-0.0664191 0.590059 0)
(-0.168141 1.04291 0)
(-0.321917 1.08308 0)
(-0.455327 1.03371 0)
(-0.552888 0.945383 0)
(-0.631838 0.824328 0)
(-0.69301 0.674812 0)
(-0.7391 0.502691 0)
(-0.770077 0.315988 0)
(-0.782605 0.121302 0)
(-0.779874 -0.0801821 0)
(-0.760861 -0.285103 0)
(-0.724835 -0.487593 0)
(-0.671962 -0.680351 0)
(-0.601984 -0.855016 0)
(-0.516938 -1.00185 0)
(-0.421463 -1.10124 0)
(-0.297431 -1.12116 0)
(-0.156407 -0.997073 0)
(-0.0590273 -0.518319 0)
(-0.0479473 0.674657 0)
(-0.103581 1.16819 0)
(-0.18086 1.18898 0)
(-0.227633 1.11125 0)
(-0.237776 0.998011 0)
(-0.229411 0.860159 0)
(-0.215853 0.69948 0)
(-0.202072 0.519446 0)
(-0.193468 0.324917 0)
(-0.184922 0.121812 0)
(-0.180328 -0.0875761 0)
(-0.180275 -0.301126 0)
(-0.182003 -0.513463 0)
(-0.182096 -0.716984 0)
(-0.17949 -0.902394 0)
(-0.17105 -1.05884 0)
(-0.161475 -1.17135 0)
(-0.130353 -1.21048 0)
(-0.0794014 -1.10357 0)
(-0.038109 -0.591495 0)
(-0.0243609 0.722816 0)
(-0.0100963 1.2085 0)
(0.0303643 1.19453 0)
(0.105964 1.0843 0)
(0.211008 0.949412 0)
(0.321937 0.803062 0)
(0.42742 0.646416 0)
(0.511499 0.477434 0)
(0.57274 0.297109 0)
(0.608585 0.108566 0)
(0.616647 -0.0857996 0)
(0.596291 -0.285529 0)
(0.549856 -0.486413 0)
(0.480787 -0.681838 0)
(0.393345 -0.862357 0)
(0.291786 -1.01735 0)
(0.183069 -1.13541 0)
(0.0847217 -1.19311 0)
(0.012985 -1.1179 0)
(-0.0157613 -0.6247 0)
(0.0198662 0.714957 0)
(0.15479 1.11797 0)
(0.379623 1.05577 0)
(0.622342 0.922605 0)
(0.864741 0.782821 0)
(1.08508 0.645257 0)
(1.27891 0.510257 0)
(1.42995 0.371759 0)
(1.53881 0.226933 0)
(1.59938 0.0767276 0)
(1.6113 -0.0778447 0)
(1.56958 -0.237646 0)
(1.47562 -0.401539 0)
(1.33329 -0.563646 0)
(1.14549 -0.714932 0)
(0.91684 -0.847443 0)
(0.656572 -0.955442 0)
(0.386786 -1.02731 0)
(0.145933 -1.00606 0)
(0.0185629 -0.610833 0)
(0.126853 0.572967 0)
(0.435561 0.795497 0)
(0.915984 0.700638 0)
(1.36509 0.585343 0)
(1.75735 0.481623 0)
(2.08302 0.38638 0)
(2.35023 0.298565 0)
(2.55523 0.212942 0)
(2.69166 0.12538 0)
(2.76209 0.0353044 0)
(2.76262 -0.057316 0)
(2.69148 -0.15312 0)
(2.54629 -0.251456 0)
(2.32302 -0.348397 0)
(2.02557 -0.439259 0)
(1.66393 -0.520215 0)
(1.24773 -0.592055 0)
(0.792379 -0.659534 0)
(0.348107 -0.700809 0)
(0.101422 -0.494952 0)
(0.392217 0.251337 0)
(0.697071 0.29766 0)
(1.15765 0.245735 0)
(1.54607 0.199437 0)
(1.86196 0.160998 0)
(2.11527 0.126954 0)
(2.3132 0.0961945 0)
(2.46271 0.0676532 0)
(2.56085 0.038766 0)
(2.60876 0.00895295 0)
(2.60362 -0.0218245 0)
(2.54411 -0.0539465 0)
(2.42653 -0.0869964 0)
(2.25482 -0.119717 0)
(2.03069 -0.150195 0)
(1.75259 -0.176733 0)
(1.42605 -0.200184 0)
(1.04661 -0.227109 0)
(0.627779 -0.263013 0)
(0.366622 -0.219686 0)
)
;

boundaryField
{
    movingWall
    {
        type            fixedValue;
        value           uniform (1 0 0);
    }
    fixedWalls
    {
        type            noSlip;
    }
    frontAndBack
    {
        type            empty;
    }
}


// ************************************************************************* //
