/*--------------------------------*- C++ -*----------------------------------*\
| =========                 |                                                 |
| \\      /  F ield         | OpenFOAM: The Open Source CFD Toolbox           |
|  \\    /   O peration     | Version:  v1912                                 |
|   \\  /    A nd           | Website:  www.openfoam.com                      |
|    \\/     M anipulation  |                                                 |
\*---------------------------------------------------------------------------*/
FoamFile
{
    version     2.0;
    format      ascii;
    class       volScalarField;
    location    "8";
    object      p;
}
// * * * * * * * * * * * * * * * * * * * * * * * * * * * * * * * * * * * * * //

dimensions      [0 2 -2 0 0 0 0];


internalField   nonuniform List<scalar> 
400
(
1.26553e-05
1.674
2.39692
2.14979
1.1394
-0.355666
-2.15064
-4.10547
-6.14904
-8.362
-10.8659
-13.6714
-16.7153
-19.9146
-23.1448
-26.1957
-28.7472
-30.3144
-30.3732
-28.5451
-0.845207
0.30897
0.89029
0.689099
-0.167144
-1.44749
-3.01518
-4.73652
-6.52308
-8.47135
-10.7128
-13.2359
-15.9604
-18.8046
-21.6586
-24.3395
-26.5801
-27.9608
-28.0623
-26.7093
-0.694936
-0.147098
0.145594
-0.173717
-1.02101
-2.20614
-3.63385
-5.18279
-6.76515
-8.48313
-10.4925
-12.7913
-15.2778
-17.8729
-20.4855
-22.9635
-25.0893
-26.517
-26.9278
-26.3298
-0.400085
-0.382175
-0.43412
-0.925952
-1.80465
-2.92897
-4.24492
-5.65645
-7.07918
-8.60249
-10.4173
-12.5514
-14.8769
-17.3103
-19.776
-22.1506
-24.2623
-25.8305
-26.6132
-26.7405
-0.109232
-0.517274
-0.881044
-1.5417
-2.47231
-3.57017
-4.81216
-6.13596
-7.45321
-8.83276
-10.4995
-12.5204
-14.7561
-17.1073
-19.5077
-21.8534
-24.0068
-25.7364
-26.8587
-27.5938
0.255641
-0.519501
-1.15419
-1.96814
-2.95686
-4.05404
-5.26569
-6.56633
-7.87499
-9.22117
-10.8161
-12.7679
-14.9558
-17.2631
-19.632
-21.9743
-24.1802
-26.0557
-27.4601
-28.6812
0.641657
-0.430456
-1.29007
-2.25409
-3.33609
-4.47827
-5.70301
-7.01676
-8.35678
-9.73268
-11.3078
-13.2135
-15.3726
-17.6521
-20.0004
-22.3441
-24.5979
-26.5928
-28.2199
-29.8199
0.947761
-0.365714
-1.41528
-2.51654
-3.69046
-4.8803
-6.12316
-7.44827
-8.81919
-10.2415
-11.8197
-13.6848
-15.8097
-18.0658
-20.3989
-22.7494
-25.0516
-27.1509
-28.9545
-30.8272
1.15194
-0.333501
-1.51617
-2.71924
-3.96836
-5.19835
-6.45703
-7.78601
-9.1882
-10.6531
-12.2619
-14.1052
-16.1782
-18.417
-20.7472
-23.1141
-25.4634
-27.6454
-29.5742
-31.6232
1.24663
-0.327559
-1.5711
-2.8221
-4.11385
-5.36631
-6.63578
-7.97117
-9.40242
-10.9251
-12.5845
-14.4412
-16.5013
-18.7189
-21.0487
-23.4419
-25.8338
-28.0692
-30.0679
-32.2138
1.24561
-0.346314
-1.58852
-2.81955
-4.10578
-5.35941
-6.63698
-7.99018
-9.45559
-11.0466
-12.7772
-14.6902
-16.7829
-19.0194
-21.3627
-23.7587
-26.1709
-28.4209
-30.4306
-32.6024
1.22147
-0.351537
-1.55814
-2.74796
-3.99395
-5.2081
-6.47388
-7.85255
-9.37132
-11.0319
-12.8497
-14.8479
-17.0192
-19.3296
-21.7121
-24.1206
-26.5016
-28.6885
-30.6372
-32.7536
1.1777
-0.340455
-1.48742
-2.62907
-3.81706
-4.99136
-6.22029
-7.60044
-9.18536
-10.9313
-12.8348
-14.9241
-17.206
-19.6198
-22.0858
-24.5187
-26.8418
-28.8924
-30.6648
-32.6236
0.957144
-0.419369
-1.4419
-2.48812
-3.61217
-4.75186
-5.94018
-7.31178
-8.95015
-10.7864
-12.7777
-14.9557
-17.3331
-19.8615
-22.4361
-24.9105
-27.1669
-29.0318
-30.5417
-32.201
0.436312
-0.664414
-1.46671
-2.36462
-3.40607
-4.48813
-5.63921
-7.00755
-8.69175
-10.6163
-12.6941
-14.9613
-17.4359
-20.0654
-22.73
-25.2649
-27.4702
-29.1206
-30.2994
-31.5374
-0.351548
-1.01203
-1.49746
-2.20019
-3.13534
-4.16517
-5.28386
-6.66194
-8.42691
-10.4606
-12.6345
-14.9878
-17.5676
-20.3137
-23.0749
-25.6483
-27.8032
-29.2429
-30.0161
-30.709
-1.3258
-1.35232
-1.39918
-1.86159
-2.6976
-3.70589
-4.85243
-6.31667
-8.21073
-10.3849
-12.7118
-15.2196
-17.93
-20.7961
-23.6579
-26.2633
-28.3263
-29.5214
-29.831
-29.8119
-2.55734
-1.66925
-1.13857
-1.31291
-2.05996
-3.10999
-4.36886
-5.99417
-8.07515
-10.4557
-13.0078
-15.728
-18.6532
-21.717
-24.7206
-27.3735
-29.3295
-30.2104
-29.9239
-28.9547
-4.10591
-1.80745
-0.617816
-0.542123
-1.24955
-2.40732
-3.85396
-5.68276
-7.97841
-10.6112
-13.4758
-16.5452
-19.8098
-23.1757
-26.4196
-29.191
-31.0641
-31.5975
-30.5368
-28.1338
-4.82397
-0.640177
1.02995
1.05207
0.156242
-1.2498
-3.00264
-5.1431
-7.73351
-10.7034
-13.9587
-17.4631
-21.1918
-25.0312
-28.7162
-31.8162
-33.8182
-34.1784
-32.2134
-27.7053
)
;

boundaryField
{
    movingWall
    {
        type            zeroGradient;
    }
    fixedWalls
    {
        type            zeroGradient;
    }
    frontAndBack
    {
        type            empty;
    }
}


// ************************************************************************* //
