/*--------------------------------*- C++ -*----------------------------------*\
| =========                 |                                                 |
| \\      /  F ield         | OpenFOAM: The Open Source CFD Toolbox           |
|  \\    /   O peration     | Version:  v1912                                 |
|   \\  /    A nd           | Website:  www.openfoam.com                      |
|    \\/     M anipulation  |                                                 |
\*---------------------------------------------------------------------------*/
FoamFile
{
    version     2.0;
    format      ascii;
    class       surfaceScalarField;
    location    "8";
    object      phi;
}
// * * * * * * * * * * * * * * * * * * * * * * * * * * * * * * * * * * * * * //

dimensions      [0 3 -1 0 0 0 0];
oriented        oriented;


internalField   nonuniform List<scalar> 
760
(
1.4066e-05
-1.40661e-05
4.0098e-05
-2.6032e-05
6.78345e-05
-2.77366e-05
9.35529e-05
-2.57184e-05
0.000115482
-2.19286e-05
0.000132982
-1.75004e-05
0.000146109
-1.31265e-05
0.000155485
-9.37601e-06
0.000161884
-6.39923e-06
0.000165539
-3.65513e-06
0.000166119
-5.80415e-07
0.000163159
2.96078e-06
0.000156264
6.89462e-06
0.000145069
1.11948e-05
0.000129221
1.58478e-05
0.000108454
2.07677e-05
8.26437e-05
2.58099e-05
5.19831e-05
3.06606e-05
1.88777e-05
3.31054e-05
1.88778e-05
1.51716e-05
-2.92377e-05
3.97406e-05
-5.06009e-05
6.47102e-05
-5.27061e-05
8.78456e-05
-4.88537e-05
0.000108191
-4.22744e-05
0.00012533
-3.46386e-05
0.00013926
-2.70574e-05
0.000150289
-2.04041e-05
0.000158716
-1.48265e-05
0.000164703
-9.64221e-06
0.000168025
-3.90249e-06
0.000168081
2.90478e-06
0.000164244
1.07319e-05
0.000155847
1.95913e-05
0.000142197
2.94982e-05
0.000122635
4.03299e-05
9.66537e-05
5.17911e-05
6.39135e-05
6.34008e-05
2.60184e-05
7.10005e-05
4.48962e-05
5.01019e-06
-3.42479e-05
1.39893e-05
-5.958e-05
2.36683e-05
-6.2385e-05
3.38586e-05
-5.90439e-05
4.41993e-05
-5.26152e-05
5.41668e-05
-4.4606e-05
6.3281e-05
-3.61717e-05
7.10983e-05
-2.82214e-05
7.73909e-05
-2.11191e-05
8.2274e-05
-1.45253e-05
8.57373e-05
-7.36581e-06
8.74652e-05
1.17694e-06
8.70434e-05
1.11536e-05
8.40421e-05
2.25926e-05
7.80225e-05
3.55177e-05
6.85481e-05
4.98043e-05
5.52015e-05
6.51377e-05
3.75555e-05
8.10468e-05
1.57915e-05
9.27647e-05
6.06877e-05
-4.13896e-07
-3.38339e-05
-5.82018e-07
-5.94118e-05
1.3134e-07
-6.30984e-05
2.54793e-06
-6.14604e-05
6.55364e-06
-5.66208e-05
1.15675e-05
-4.96199e-05
1.68432e-05
-4.14473e-05
2.1484e-05
-3.28622e-05
2.48882e-05
-2.45233e-05
2.70493e-05
-1.66864e-05
2.83273e-05
-8.64376e-06
2.89761e-05
5.28057e-07
2.89608e-05
1.1169e-05
2.82123e-05
2.33411e-05
2.6619e-05
3.7111e-05
2.40102e-05
5.2413e-05
2.0109e-05
6.9039e-05
1.4471e-05
8.66849e-05
6.5212e-06
0.000100714
6.72088e-05
-2.63654e-06
-3.11974e-05
-7.67452e-06
-5.43737e-05
-1.24335e-05
-5.83395e-05
-1.54681e-05
-5.84258e-05
-1.64253e-05
-5.56637e-05
-1.56485e-05
-5.03968e-05
-1.38762e-05
-4.32195e-05
-1.21452e-05
-3.45932e-05
-1.14852e-05
-2.51833e-05
-1.22435e-05
-1.59282e-05
-1.37179e-05
-7.16942e-06
-1.49835e-05
1.79367e-06
-1.55155e-05
1.1701e-05
-1.49509e-05
2.27764e-05
-1.31243e-05
3.52843e-05
-1.01261e-05
4.94148e-05
-6.37992e-06
6.52928e-05
-2.66352e-06
8.29685e-05
-2.35411e-07
9.82863e-05
6.69734e-05
-4.84265e-06
-2.63548e-05
-1.3924e-05
-4.52923e-05
-2.35311e-05
-4.87324e-05
-3.2121e-05
-4.98361e-05
-3.90287e-05
-4.8756e-05
-4.40849e-05
-4.53406e-05
-4.75081e-05
-3.97963e-05
-4.98355e-05
-3.22658e-05
-5.1833e-05
-2.31859e-05
-5.40986e-05
-1.36625e-05
-5.62676e-05
-5.00044e-06
-5.73212e-05
2.84722e-06
-5.64743e-05
1.08541e-05
-5.31846e-05
1.94866e-05
-4.71735e-05
2.92732e-05
-3.85629e-05
4.08042e-05
-2.79615e-05
5.46914e-05
-1.6415e-05
7.1422e-05
-5.63136e-06
8.75027e-05
6.13421e-05
-7.12526e-06
-1.92296e-05
-1.99796e-05
-3.24381e-05
-3.39329e-05
-3.4779e-05
-4.74712e-05
-3.62979e-05
-5.96397e-05
-3.65876e-05
-6.98631e-05
-3.51173e-05
-7.79311e-05
-3.17284e-05
-8.38714e-05
-2.63255e-05
-8.80586e-05
-1.89987e-05
-9.09659e-05
-1.07552e-05
-9.26629e-05
-3.30342e-06
-9.24188e-05
2.60313e-06
-8.93659e-05
7.8011e-06
-8.30404e-05
1.31612e-05
-7.31939e-05
1.94266e-05
-5.99999e-05
2.76102e-05
-4.41417e-05
3.88332e-05
-2.67764e-05
5.40567e-05
-9.80753e-06
7.05338e-05
5.15345e-05
-8.68305e-06
-1.05466e-05
-2.37951e-05
-1.73262e-05
-3.98232e-05
-1.87508e-05
-5.55405e-05
-2.05805e-05
-7.01698e-05
-2.19584e-05
-8.30666e-05
-2.22205e-05
-9.37734e-05
-2.10216e-05
-0.000101942
-1.81566e-05
-0.000107564
-1.33769e-05
-0.000110791
-7.52846e-06
-0.000111986
-2.10803e-06
-0.000110913
1.52969e-06
-0.000106676
3.56393e-06
-9.88625e-05
5.34789e-06
-8.7243e-05
7.80702e-06
-7.19378e-05
1.2305e-05
-5.35027e-05
2.0398e-05
-3.29812e-05
3.35352e-05
-1.23505e-05
4.99031e-05
3.9184e-05
-9.66104e-06
-8.85499e-07
-2.61065e-05
-8.80807e-07
-4.3064e-05
-1.79331e-06
-5.95099e-05
-4.13463e-06
-7.4906e-05
-6.56239e-06
-8.86811e-05
-8.44543e-06
-0.000100326
-9.37627e-06
-0.000109376
-9.10715e-06
-0.000115414
-7.33869e-06
-0.000118528
-4.41455e-06
-0.000118945
-1.69093e-06
-0.000116973
-4.4271e-07
-0.000112384
-1.02505e-06
-0.000104387
-2.64827e-06
-9.25727e-05
-4.00777e-06
-7.69e-05
-3.36772e-06
-5.77299e-05
1.22799e-06
-3.59424e-05
1.17478e-05
-1.3561e-05
2.75217e-05
2.5623e-05
-9.99848e-06
9.11304e-06
-2.70099e-05
1.61306e-05
-4.44418e-05
1.56386e-05
-6.12789e-05
1.27025e-05
-7.70559e-05
9.21455e-06
-9.12176e-05
5.71627e-06
-0.000103239
2.64479e-06
-0.000112653
3.07094e-07
-0.000118894
-1.09787e-06
-0.000121739
-1.56947e-06
-0.000121419
-2.01104e-06
-0.000118415
-3.44652e-06
-0.000113036
-6.40342e-06
-0.000105036
-1.0649e-05
-9.37854e-05
-1.5258e-05
-7.86325e-05
-1.85206e-05
-5.96075e-05
-1.7797e-05
-3.74162e-05
-1.04436e-05
-1.41772e-05
4.2827e-06
1.14458e-05
-9.7848e-06
1.88979e-05
-2.66362e-05
3.29821e-05
-4.39427e-05
3.29451e-05
-6.11144e-05
2.98741e-05
-7.75622e-05
2.56624e-05
-9.24343e-05
2.05884e-05
-0.00010498
1.51908e-05
-0.000114759
1.00856e-05
-0.000121388
5.53158e-06
-0.000124362
1.40438e-06
-0.000123733
-2.63958e-06
-0.000119893
-7.28734e-06
-0.000113395
-1.29007e-05
-0.000104528
-1.95164e-05
-9.30862e-05
-2.66995e-05
-7.85622e-05
-3.30446e-05
-6.02108e-05
-3.61485e-05
-3.81436e-05
-3.25107e-05
-1.45486e-05
-1.93123e-05
-3.10287e-06
-9.69026e-06
2.85882e-05
-2.59842e-05
4.92761e-05
-4.26902e-05
4.96511e-05
-5.96492e-05
4.68331e-05
-7.63325e-05
4.23456e-05
-9.19317e-05
3.61876e-05
-0.000105325
2.85844e-05
-0.00011564
2.04008e-05
-0.000122742
1.26332e-05
-0.000126333
4.99538e-06
-0.000126064
-2.90895e-06
-0.000122049
-1.13018e-05
-0.000114746
-2.02042e-05
-0.000104599
-2.96628e-05
-9.20469e-05
-3.92519e-05
-7.69839e-05
-4.81075e-05
-5.90201e-05
-5.41124e-05
-3.77244e-05
-5.38063e-05
-1.44874e-05
-4.25494e-05
-1.75902e-05
-1.01564e-05
3.87446e-05
-2.61755e-05
6.52952e-05
-4.22275e-05
6.57032e-05
-5.81946e-05
6.28002e-05
-7.40293e-05
5.81803e-05
-8.90918e-05
5.12502e-05
-0.00010241
4.19029e-05
-0.000112965
3.09559e-05
-0.000120275
1.99432e-05
-0.000124283
9.00301e-06
-0.000124672
-2.51934e-06
-0.000121222
-1.4752e-05
-0.000113902
-2.75245e-05
-0.000103208
-4.03564e-05
-8.97025e-05
-5.27578e-05
-7.38389e-05
-6.39711e-05
-5.57196e-05
-7.22317e-05
-3.53614e-05
-7.41645e-05
-1.36454e-05
-6.42655e-05
-3.12356e-05
-1.00372e-05
4.87819e-05
-2.53897e-05
8.06476e-05
-4.03664e-05
8.06799e-05
-5.4581e-05
7.70148e-05
-6.80932e-05
7.16925e-05
-8.07063e-05
6.38633e-05
-9.19387e-05
5.31353e-05
-0.000101209
4.02259e-05
-0.00010784
2.65743e-05
-0.000111712
1.28754e-05
-0.000112514
-1.71715e-06
-0.000109941
-1.73249e-05
-0.000103852
-3.36142e-05
-9.42394e-05
-4.99689e-05
-8.1451e-05
-6.55462e-05
-6.63246e-05
-7.90975e-05
-4.93955e-05
-8.91608e-05
-3.08382e-05
-9.27218e-05
-1.17577e-05
-8.33458e-05
-4.29932e-05
-8.15346e-06
5.69353e-05
-2.04315e-05
9.29257e-05
-3.19228e-05
9.21711e-05
-4.19061e-05
8.69981e-05
-5.03929e-05
8.01793e-05
-5.79602e-05
7.14307e-05
-6.47793e-05
5.99544e-05
-7.07207e-05
4.61674e-05
-7.55002e-05
3.13538e-05
-7.87955e-05
1.61706e-05
-8.02611e-05
-2.51549e-07
-7.9433e-05
-1.8153e-05
-7.60313e-05
-3.70159e-05
-6.99417e-05
-5.60584e-05
-6.11912e-05
-7.42969e-05
-5.00317e-05
-9.02569e-05
-3.72954e-05
-0.000101897
-2.33302e-05
-0.000106687
-8.88312e-06
-9.7793e-05
-5.18763e-05
-4.99517e-06
6.19305e-05
-1.13579e-05
9.92885e-05
-1.56556e-05
9.64687e-05
-1.74707e-05
8.88132e-05
-1.74321e-05
8.01407e-05
-1.67125e-05
7.07112e-05
-1.64688e-05
5.97108e-05
-1.71674e-05
4.68658e-05
-1.8531e-05
3.27173e-05
-2.02273e-05
1.7867e-05
-2.22549e-05
1.77613e-06
-2.43465e-05
-1.60614e-05
-2.58302e-05
-3.55323e-05
-2.60629e-05
-5.58257e-05
-2.47426e-05
-7.56171e-05
-2.17716e-05
-9.32278e-05
-1.72465e-05
-0.000106422
-1.1542e-05
-0.000112391
-4.80587e-06
-0.000104529
-5.66822e-05
-1.12946e-06
6.306e-05
6.9411e-07
9.74648e-05
5.77392e-06
9.13889e-05
1.37945e-05
8.07927e-05
2.35752e-05
7.03601e-05
3.34745e-05
6.08119e-05
4.20339e-05
5.11514e-05
4.84366e-05
4.04631e-05
5.25615e-05
2.85925e-05
5.43849e-05
1.60437e-05
5.36262e-05
2.53472e-06
5.03631e-05
-1.27985e-05
4.47602e-05
-2.99294e-05
3.74331e-05
-4.84985e-05
2.92076e-05
-6.73918e-05
2.07157e-05
-8.4736e-05
1.25631e-05
-9.82697e-05
5.54023e-06
-0.000105368
8.89689e-07
-9.98786e-05
-5.57925e-05
6.49183e-06
5.65681e-05
2.16773e-05
8.22793e-05
3.9133e-05
7.39332e-05
5.74748e-05
6.24509e-05
7.58312e-05
5.20037e-05
9.32695e-05
4.33735e-05
0.000108695
3.57254e-05
0.000121482
2.76766e-05
0.000131151
1.89237e-05
0.000137367
9.82739e-06
0.000139415
4.86395e-07
0.000136487
-9.86969e-06
0.000128456
-2.18986e-05
0.000115479
-3.55223e-05
9.79689e-05
-4.98812e-05
7.68037e-05
-6.35708e-05
5.33267e-05
-7.47926e-05
2.95029e-05
-8.15447e-05
8.93162e-06
-7.93074e-05
-4.68609e-05
2.2828e-05
3.37401e-05
6.12793e-05
4.38281e-05
9.75841e-05
3.76283e-05
0.000129316
3.07191e-05
0.000156745
2.45741e-05
0.000180529
1.95897e-05
0.000200622
1.56325e-05
0.00021661
1.16892e-05
0.000228126
7.40773e-06
0.000234839
3.11373e-06
0.00023646
-1.13489e-06
0.000232274
-5.68342e-06
0.000221309
-1.09331e-05
0.000202726
-1.69398e-05
0.000176204
-2.33595e-05
0.000142264
-2.96307e-05
0.000102331
-3.48596e-05
5.91458e-05
-3.83592e-05
1.92715e-05
-3.9433e-05
-2.75894e-05
3.37401e-05
7.75681e-05
0.000115196
0.000145916
0.00017049
0.000190079
0.000205712
0.000217401
0.000224809
0.000227923
0.000226788
0.000221104
0.000210171
0.000193231
0.000169872
0.000140241
0.000105382
6.70225e-05
2.75894e-05
)
;

boundaryField
{
    movingWall
    {
        type            calculated;
        value           uniform 0;
    }
    fixedWalls
    {
        type            calculated;
        value           uniform 0;
    }
    frontAndBack
    {
        type            empty;
        value           nonuniform 0();
    }
}


// ************************************************************************* //
