/*--------------------------------*- C++ -*----------------------------------*\
| =========                 |                                                 |
| \\      /  F ield         | OpenFOAM: The Open Source CFD Toolbox           |
|  \\    /   O peration     | Version:  v1912                                 |
|   \\  /    A nd           | Website:  www.openfoam.com                      |
|    \\/     M anipulation  |                                                 |
\*---------------------------------------------------------------------------*/
FoamFile
{
    version     2.0;
    format      ascii;
    class       volVectorField;
    location    "8";
    object      U;
}
// * * * * * * * * * * * * * * * * * * * * * * * * * * * * * * * * * * * * * //

dimensions      [0 1 -1 0 0 0 0];


internalField   nonuniform List<vector> 
400
(
(0.153037 -0.181356 0)
(0.522459 -0.323423 0)
(1.08055 -0.344039 0)
(1.62238 -0.317785 0)
(2.10707 -0.268128 0)
(2.50413 -0.210414 0)
(2.80927 -0.153927 0)
(3.03214 -0.105282 0)
(3.19048 -0.0665928 0)
(3.28977 -0.0316793 0)
(3.33223 0.0066307 0)
(3.31004 0.049899 0)
(3.21299 0.0971932 0)
(3.03247 0.148123 0)
(2.76142 0.202337 0)
(2.39341 0.258547 0)
(1.92259 0.314392 0)
(1.35773 0.364939 0)
(0.701222 0.389998 0)
(0.218461 0.236774 0)
(0.143936 -0.462837 0)
(0.548187 -0.830468 0)
(1.05055 -0.871899 0)
(1.53013 -0.803648 0)
(1.97183 -0.685764 0)
(2.34907 -0.550365 0)
(2.65778 -0.417796 0)
(2.90853 -0.303838 0)
(3.10752 -0.210598 0)
(3.24725 -0.12348 0)
(3.34033 -0.0267881 0)
(3.37698 0.0858082 0)
(3.34249 0.212982 0)
(3.22207 0.354366 0)
(3.00292 0.509749 0)
(2.67144 0.676453 0)
(2.21179 0.849072 0)
(1.63047 1.01781 0)
(0.913226 1.10929 0)
(0.273188 0.663443 0)
(0.0371643 -0.666327 0)
(0.202043 -1.15642 0)
(0.375411 -1.20598 0)
(0.566647 -1.12677 0)
(0.778007 -0.987135 0)
(0.985201 -0.821351 0)
(1.17542 -0.65346 0)
(1.35141 -0.502361 0)
(1.49782 -0.372606 0)
(1.60584 -0.252114 0)
(1.68492 -0.118748 0)
(1.73934 0.0412697 0)
(1.75524 0.227311 0)
(1.72183 0.439741 0)
(1.63198 0.678933 0)
(1.47749 0.942222 0)
(1.24595 1.22294 0)
(0.94446 1.51048 0)
(0.556893 1.71038 0)
(0.158436 1.09999 0)
(-0.0178355 -0.696706 0)
(0.00576219 -1.22041 0)
(-0.00982591 -1.28789 0)
(0.0123896 -1.23654 0)
(0.0822711 -1.12006 0)
(0.177163 -0.965446 0)
(0.2805 -0.795393 0)
(0.388673 -0.627565 0)
(0.475715 -0.472504 0)
(0.530455 -0.328247 0)
(0.552803 -0.174663 0)
(0.573157 0.00673938 0)
(0.581297 0.219599 0)
(0.57304 0.464451 0)
(0.548765 0.741626 0)
(0.506703 1.04841 0)
(0.438519 1.37843 0)
(0.352645 1.72291 0)
(0.23291 1.98586 0)
(0.0578315 1.31093 0)
(-0.0423813 -0.660243 0)
(-0.0841938 -1.15786 0)
(-0.20465 -1.23839 0)
(-0.293867 -1.22501 0)
(-0.330225 -1.1488 0)
(-0.327883 -1.0239 0)
(-0.30147 -0.866712 0)
(-0.2587 -0.690158 0)
(-0.222946 -0.508903 0)
(-0.222921 -0.335871 0)
(-0.263268 -0.165927 0)
(-0.293897 0.0191026 0)
(-0.311266 0.230263 0)
(-0.313171 0.469971 0)
(-0.29071 0.74091 0)
(-0.241879 1.04343 0)
(-0.17585 1.37585 0)
(-0.0892613 1.735 0)
(-0.00523266 2.03154 0)
(-0.0173854 1.3676 0)
(-0.070424 -0.585225 0)
(-0.166324 -1.01486 0)
(-0.373908 -1.09311 0)
(-0.567523 -1.10914 0)
(-0.720719 -1.07321 0)
(-0.839997 -0.986298 0)
(-0.924666 -0.856386 0)
(-0.980116 -0.689527 0)
(-1.01158 -0.497838 0)
(-1.04935 -0.30358 0)
(-1.10863 -0.124591 0)
(-1.14922 0.0477703 0)
(-1.15032 0.231654 0)
(-1.11192 0.433805 0)
(-1.02037 0.662018 0)
(-0.87263 0.923692 0)
(-0.680574 1.22568 0)
(-0.445585 1.57307 0)
(-0.195186 1.88912 0)
(-0.0771731 1.30277 0)
(-0.097562 -0.464293 0)
(-0.248377 -0.790748 0)
(-0.534117 -0.849581 0)
(-0.822522 -0.878161 0)
(-1.07931 -0.872733 0)
(-1.30508 -0.825273 0)
(-1.48904 -0.735487 0)
(-1.63151 -0.603266 0)
(-1.72279 -0.434159 0)
(-1.79039 -0.250286 0)
(-1.84114 -0.0843881 0)
(-1.86977 0.0562822 0)
(-1.83428 0.191446 0)
(-1.74317 0.334026 0)
(-1.58246 0.497016 0)
(-1.34995 0.696664 0)
(-1.05931 0.950488 0)
(-0.712371 1.27298 0)
(-0.339997 1.60089 0)
(-0.125743 1.14236 0)
(-0.118902 -0.303815 0)
(-0.304249 -0.50631 0)
(-0.63059 -0.542306 0)
(-0.961275 -0.575647 0)
(-1.2633 -0.593448 0)
(-1.54156 -0.582621 0)
(-1.77955 -0.537257 0)
(-1.97326 -0.453702 0)
(-2.1041 -0.329746 0)
(-2.1927 -0.185089 0)
(-2.23187 -0.0526514 0)
(-2.24912 0.0436829 0)
(-2.19437 0.115759 0)
(-2.07558 0.187673 0)
(-1.88215 0.275678 0)
(-1.61116 0.403587 0)
(-1.27487 0.598559 0)
(-0.870375 0.884641 0)
(-0.428763 1.21549 0)
(-0.157021 0.915246 0)
(-0.134329 -0.117616 0)
(-0.339532 -0.18704 0)
(-0.686875 -0.208915 0)
(-1.03434 -0.249744 0)
(-1.34948 -0.287861 0)
(-1.64425 -0.309679 0)
(-1.90081 -0.307211 0)
(-2.11208 -0.275635 0)
(-2.26348 -0.208547 0)
(-2.34865 -0.118274 0)
(-2.38751 -0.0343853 0)
(-2.37054 0.0156806 0)
(-2.31181 0.0280498 0)
(-2.18757 0.0269374 0)
(-1.99091 0.0367563 0)
(-1.71499 0.088792 0)
(-1.36934 0.217366 0)
(-0.944644 0.456336 0)
(-0.472274 0.779959 0)
(-0.173587 0.652339 0)
(-0.142439 0.081611 0)
(-0.352328 0.151758 0)
(-0.708858 0.137593 0)
(-1.06703 0.0839758 0)
(-1.38839 0.0241707 0)
(-1.69087 -0.0294875 0)
(-1.95527 -0.0690324 0)
(-2.1727 -0.0893485 0)
(-2.33362 -0.0852805 0)
(-2.41966 -0.0588118 0)
(-2.44652 -0.0337818 0)
(-2.4098 -0.0335692 0)
(-2.32923 -0.0688634 0)
(-2.19469 -0.130247 0)
(-2.00941 -0.193792 0)
(-1.7456 -0.222069 0)
(-1.40843 -0.167817 0)
(-0.98037 0.013464 0)
(-0.494694 0.32055 0)
(-0.182623 0.372683 0)
(-0.139642 0.279419 0)
(-0.35024 0.491268 0)
(-0.695383 0.487328 0)
(-1.05869 0.426024 0)
(-1.39063 0.347006 0)
(-1.70886 0.259721 0)
(-1.98582 0.175535 0)
(-2.21148 0.102175 0)
(-2.37815 0.042672 0)
(-2.47659 -0.0031183 0)
(-2.49553 -0.0460477 0)
(-2.45381 -0.104483 0)
(-2.34372 -0.18748 0)
(-2.19404 -0.295083 0)
(-1.99008 -0.415229 0)
(-1.73542 -0.515596 0)
(-1.41718 -0.542547 0)
(-0.995711 -0.431937 0)
(-0.507144 -0.150758 0)
(-0.187943 0.0833875 0)
(-0.140932 0.476321 0)
(-0.344925 0.827851 0)
(-0.673965 0.830874 0)
(-1.02959 0.770091 0)
(-1.36119 0.68152 0)
(-1.68766 0.567964 0)
(-1.98643 0.435968 0)
(-2.22519 0.303487 0)
(-2.40034 0.180514 0)
(-2.50851 0.0620058 0)
(-2.54354 -0.0577167 0)
(-2.49928 -0.186409 0)
(-2.38436 -0.328752 0)
(-2.20902 -0.487243 0)
(-1.97749 -0.653375 0)
(-1.70741 -0.806656 0)
(-1.38153 -0.902495 0)
(-0.981823 -0.867372 0)
(-0.503758 -0.623199 0)
(-0.187494 -0.209706 0)
(-0.149299 0.674698 0)
(-0.350485 1.14923 0)
(-0.675841 1.15885 0)
(-1.01042 1.10463 0)
(-1.32064 1.0143 0)
(-1.63687 0.881788 0)
(-1.92177 0.710748 0)
(-2.17193 0.516601 0)
(-2.34899 0.327555 0)
(-2.46221 0.139993 0)
(-2.5076 -0.0562464 0)
(-2.47884 -0.26366 0)
(-2.37315 -0.479922 0)
(-2.18712 -0.700794 0)
(-1.94593 -0.919385 0)
(-1.64661 -1.12008 0)
(-1.31656 -1.26343 0)
(-0.912594 -1.285 0)
(-0.474606 -1.07728 0)
(-0.17749 -0.494582 0)
(-0.144232 0.880707 0)
(-0.34111 1.46658 0)
(-0.653816 1.47169 0)
(-0.95792 1.40953 0)
(-1.22867 1.31436 0)
(-1.49327 1.16813 0)
(-1.7278 0.965646 0)
(-1.94548 0.722716 0)
(-2.10658 0.471516 0)
(-2.20929 0.221113 0)
(-2.25753 -0.0436972 0)
(-2.24233 -0.32544 0)
(-2.15777 -0.619146 0)
(-2.00182 -0.912859 0)
(-1.77579 -1.19273 0)
(-1.48911 -1.44053 0)
(-1.17444 -1.62623 0)
(-0.79962 -1.68083 0)
(-0.403736 -1.49163 0)
(-0.156991 -0.752437 0)
(-0.120851 1.06883 0)
(-0.272111 1.75574 0)
(-0.52399 1.75202 0)
(-0.750284 1.66791 0)
(-0.931503 1.54987 0)
(-1.08261 1.38444 0)
(-1.2275 1.15785 0)
(-1.35846 0.884878 0)
(-1.47465 0.592323 0)
(-1.55014 0.296006 0)
(-1.59978 -0.022319 0)
(-1.60969 -0.365061 0)
(-1.57042 -0.722581 0)
(-1.47727 -1.08143 0)
(-1.32951 -1.42318 0)
(-1.12963 -1.71959 0)
(-0.885349 -1.9372 0)
(-0.602497 -2.023 0)
(-0.298675 -1.83755 0)
(-0.121522 -0.963613 0)
(-0.0849146 1.20482 0)
(-0.154614 1.9554 0)
(-0.27844 1.92747 0)
(-0.34667 1.80451 0)
(-0.359716 1.6513 0)
(-0.33778 1.46809 0)
(-0.320461 1.23883 0)
(-0.33112 0.964109 0)
(-0.362693 0.664989 0)
(-0.38604 0.354605 0)
(-0.420916 0.0187077 0)
(-0.466713 -0.35066 0)
(-0.510567 -0.746707 0)
(-0.531094 -1.15025 0)
(-0.522832 -1.53814 0)
(-0.480192 -1.87913 0)
(-0.408531 -2.12932 0)
(-0.279624 -2.23712 0)
(-0.146986 -2.06561 0)
(-0.0747573 -1.1067 0)
(-0.0436438 1.27566 0)
(-0.00166453 2.01529 0)
(0.0510146 1.92948 0)
(0.178211 1.74597 0)
(0.362568 1.55236 0)
(0.578703 1.36024 0)
(0.77136 1.15097 0)
(0.916445 0.911867 0)
(1.01192 0.645676 0)
(1.08295 0.364174 0)
(1.09412 0.057551 0)
(1.05212 -0.287059 0)
(0.959535 -0.666532 0)
(0.82159 -1.07061 0)
(0.661256 -1.4724 0)
(0.490464 -1.8346 0)
(0.318593 -2.11053 0)
(0.181598 -2.24324 0)
(0.0729599 -2.10447 0)
(-0.0161648 -1.15519 0)
(0.0366469 1.24961 0)
(0.283051 1.87509 0)
(0.602151 1.72127 0)
(0.956437 1.48575 0)
(1.32853 1.26429 0)
(1.69989 1.07449 0)
(2.03996 0.896488 0)
(2.31289 0.705913 0)
(2.53764 0.495414 0)
(2.70127 0.273671 0)
(2.79328 0.0406263 0)
(2.78551 -0.223517 0)
(2.67021 -0.526714 0)
(2.45659 -0.863536 0)
(2.14573 -1.21391 0)
(1.75272 -1.54218 0)
(1.29677 -1.80536 0)
(0.829775 -1.95441 0)
(0.378344 -1.87598 0)
(0.0687641 -1.0767 0)
(0.237302 0.95905 0)
(0.844387 1.35549 0)
(1.60465 1.19168 0)
(2.28085 0.982488 0)
(2.87482 0.795333 0)
(3.38694 0.643508 0)
(3.83906 0.517288 0)
(4.19028 0.388917 0)
(4.46755 0.251796 0)
(4.65217 0.111397 0)
(4.74012 -0.0301461 0)
(4.71791 -0.183624 0)
(4.56821 -0.362134 0)
(4.27217 -0.567009 0)
(3.81756 -0.785492 0)
(3.20629 -0.996734 0)
(2.45774 -1.17098 0)
(1.61824 -1.2787 0)
(0.759669 -1.26323 0)
(0.211181 -0.780271 0)
(0.526191 0.400275 0)
(1.11673 0.52351 0)
(1.94193 0.447708 0)
(2.63101 0.35958 0)
(3.18681 0.279475 0)
(3.62537 0.21332 0)
(3.97948 0.161873 0)
(4.25167 0.113617 0)
(4.44132 0.0626703 0)
(4.547 0.0124105 0)
(4.56839 -0.037124 0)
(4.50213 -0.0894798 0)
(4.33708 -0.14889 0)
(4.05781 -0.216168 0)
(3.65136 -0.287973 0)
(3.11852 -0.358172 0)
(2.46327 -0.41591 0)
(1.71773 -0.45284 0)
(0.952469 -0.461375 0)
(0.461098 -0.324951 0)
)
;

boundaryField
{
    movingWall
    {
        type            fixedValue;
        value           uniform (1 0 0);
    }
    fixedWalls
    {
        type            noSlip;
    }
    frontAndBack
    {
        type            empty;
    }
}


// ************************************************************************* //
