/*--------------------------------*- C++ -*----------------------------------*\
| =========                 |                                                 |
| \\      /  F ield         | OpenFOAM: The Open Source CFD Toolbox           |
|  \\    /   O peration     | Version:  v1912                                 |
|   \\  /    A nd           | Website:  www.openfoam.com                      |
|    \\/     M anipulation  |                                                 |
\*---------------------------------------------------------------------------*/
FoamFile
{
    version     2.0;
    format      ascii;
    class       volScalarField;
    location    "7";
    object      p;
}
// * * * * * * * * * * * * * * * * * * * * * * * * * * * * * * * * * * * * * //

dimensions      [0 2 -2 0 0 0 0];


internalField   nonuniform List<scalar> 
400
(
-7.43835e-06
-1.32773
-1.50084
-0.62347
1.024
3.12441
5.43269
7.76477
9.99754
12.0528
13.8868
15.5239
17.0156
18.3543
19.4864
20.3457
20.835
20.8075
20.1513
18.87
1.22697
0.269634
0.213457
1.04965
2.54617
4.42028
6.4653
8.52265
10.4861
12.2806
13.8598
15.2493
16.5146
17.6474
18.5836
19.2719
19.6396
19.5643
18.9779
17.9648
1.48708
1.05648
1.26561
2.20775
3.68884
5.45696
7.33765
9.1985
10.9544
12.5382
13.9117
15.104
16.189
17.1672
17.9766
18.5773
18.9153
18.8883
18.4576
17.7838
1.22562
1.30722
1.81823
2.91768
4.43944
6.15813
7.92935
9.64593
11.2423
12.6639
13.8757
14.919
15.8734
16.7398
17.4673
18.023
18.3752
18.4497
18.2255
17.8754
0.647644
1.17066
1.95893
3.21948
4.80486
6.50989
8.21673
9.84022
11.3309
12.6461
13.7575
14.7126
15.5892
16.3908
17.0745
17.6173
18.0064
18.1886
18.1601
18.0857
-0.0849154
0.804027
1.83085
3.24202
4.90254
6.6179
8.29278
9.86114
11.2868
12.5403
13.6052
14.5266
15.3728
16.1486
16.8213
17.3728
17.8048
18.0909
18.2374
18.399
-0.812664
0.362504
1.59311
3.14554
4.88776
6.62729
8.28837
9.82292
11.2068
12.4242
13.4681
14.382
15.2196
15.9869
16.6665
17.2475
17.7417
18.1258
18.4167
18.775
-1.42714
-0.0400317
1.35832
3.03421
4.85333
6.61952
8.2743
9.786
11.1408
12.3342
13.3714
14.2882
15.1264
15.8971
16.592
17.2094
17.76
18.2294
18.641
19.1542
-1.90646
-0.37089
1.16174
2.94258
4.83151
6.62442
8.27823
9.77624
11.1131
12.287
13.3188
14.2444
15.0951
15.8812
16.5996
17.2492
17.8511
18.3875
18.8787
19.4993
-2.31852
-0.671637
0.971568
2.851
4.81829
6.65584
8.32948
9.83358
11.1643
12.322
13.3387
14.2669
15.1349
15.9403
16.685
17.3683
18.0133
18.5891
19.1284
19.8109
-2.6957
-0.950229
0.79098
2.7744
4.82783
6.72691
8.44162
9.9729
11.3146
12.4617
13.4581
14.3794
15.2573
16.0796
16.8425
17.5537
18.2294
18.8304
19.3983
20.114
-2.94239
-1.12627
0.692643
2.76732
4.89345
6.85161
8.61368
10.1836
11.5531
12.6994
13.6781
14.5942
15.4809
16.3151
17.0858
17.8035
18.4902
19.1043
19.6776
20.4067
-2.94444
-1.12403
0.727862
2.85549
5.0303
7.03914
8.85031
10.4657
11.8711
13.0276
13.9972
14.9111
15.8089
16.654
17.4275
18.1399
18.8107
19.4064
19.9538
20.6499
-2.64341
-0.917697
0.904988
3.04504
5.24748
7.29911
9.15765
10.8187
12.2607
13.432
14.3987
15.314
16.2249
17.0822
17.8592
18.5626
19.2045
19.754
20.2325
20.8333
-2.04371
-0.529272
1.20237
3.31842
5.5306
7.6157
9.5137
11.2101
12.6772
13.8565
14.8146
15.7253
16.6491
17.5261
18.3205
19.0312
19.6555
20.1548
20.5411
21.0022
-1.25586
-0.0816305
1.48834
3.53325
5.72704
7.83004
9.76072
11.4904
12.9844
14.1821
15.1497
16.0774
17.042
17.973
18.8195
19.5674
20.1949
20.6495
20.9354
21.2371
-0.566678
0.147475
1.49948
3.44182
5.61115
7.74266
9.729
11.5255
13.0951
14.3849
15.4494
16.4649
17.5146
18.5291
19.4482
20.2477
20.8892
21.3062
21.4992
21.6549
-0.404663
-0.138777
1.01708
2.88432
5.07877
7.29932
9.41004
11.3446
13.058
14.5084
15.7377
16.8975
18.0711
19.1943
20.2018
21.0588
21.7178
22.1096
22.2614
22.3779
-1.41484
-1.22325
-0.0314481
1.89099
4.21124
6.60262
8.89884
11.0151
12.9033
14.533
15.9436
17.2687
18.5841
19.8329
20.9443
21.867
22.5495
22.9542
23.2418
23.7056
-4.56583
-3.3734
-1.65808
0.546455
3.14518
5.82441
8.3896
10.741
12.8307
14.6447
16.2395
17.7383
19.2089
20.6057
21.8463
22.85
23.5468
23.9501
24.5188
26.0323
)
;

boundaryField
{
    movingWall
    {
        type            zeroGradient;
    }
    fixedWalls
    {
        type            zeroGradient;
    }
    frontAndBack
    {
        type            empty;
    }
}


// ************************************************************************* //
