/*--------------------------------*- C++ -*----------------------------------*\
| =========                 |                                                 |
| \\      /  F ield         | OpenFOAM: The Open Source CFD Toolbox           |
|  \\    /   O peration     | Version:  v1912                                 |
|   \\  /    A nd           | Website:  www.openfoam.com                      |
|    \\/     M anipulation  |                                                 |
\*---------------------------------------------------------------------------*/
FoamFile
{
    version     2.0;
    format      ascii;
    class       surfaceScalarField;
    location    "7";
    object      phi;
}
// * * * * * * * * * * * * * * * * * * * * * * * * * * * * * * * * * * * * * //

dimensions      [0 3 -1 0 0 0 0];
oriented        oriented;


internalField   nonuniform List<scalar> 
760
(
-1.17464e-05
1.17465e-05
-3.39193e-05
2.21729e-05
-5.59591e-05
2.20398e-05
-7.54649e-05
1.95058e-05
-9.16069e-05
1.6142e-05
-0.000104031
1.24242e-05
-0.000112693
8.66143e-06
-0.000117767
5.07453e-06
-0.000119545
1.77789e-06
-0.000118405
-1.14025e-06
-0.000114753
-3.65225e-06
-0.000108884
-5.86903e-06
-0.000100778
-8.10506e-06
-9.02339e-05
-1.05446e-05
-7.7224e-05
-1.30099e-05
-6.18844e-05
-1.53396e-05
-4.4616e-05
-1.72683e-05
-2.62897e-05
-1.83264e-05
-8.96371e-06
-1.7326e-05
-8.96371e-06
-1.68876e-05
2.86341e-05
-4.3444e-05
4.87293e-05
-6.8586e-05
4.71817e-05
-9.01928e-05
4.11125e-05
-0.000107617
3.35664e-05
-0.000120617
2.54242e-05
-0.000129302
1.73467e-05
-0.000133995
9.76709e-06
-0.000135098
2.88096e-06
-0.000133009
-3.2292e-06
-0.000128104
-8.55736e-06
-0.000120721
-1.32516e-05
-0.00011114
-1.76859e-05
-9.94129e-05
-2.22721e-05
-8.55156e-05
-2.69073e-05
-6.95116e-05
-3.13436e-05
-5.1589e-05
-3.5191e-05
-3.21207e-05
-3.77947e-05
-1.2407e-05
-3.70397e-05
-2.13707e-05
-1.0278e-05
3.8912e-05
-2.62761e-05
6.47274e-05
-4.13159e-05
6.22215e-05
-5.44023e-05
5.41989e-05
-6.51039e-05
4.4268e-05
-7.31641e-05
3.34844e-05
-7.85234e-05
2.2706e-05
-8.12735e-05
1.25171e-05
-8.15944e-05
3.20182e-06
-7.96401e-05
-5.18342e-06
-7.56722e-05
-1.25253e-05
-7.00211e-05
-1.89027e-05
-6.30702e-05
-2.46367e-05
-5.5204e-05
-3.01383e-05
-4.66442e-05
-3.54671e-05
-3.75682e-05
-4.04196e-05
-2.80344e-05
-4.47248e-05
-1.78775e-05
-4.79516e-05
-7.04162e-06
-4.78757e-05
-2.84123e-05
-4.35151e-06
4.32635e-05
-1.11705e-05
7.15463e-05
-1.79807e-05
6.90318e-05
-2.44761e-05
6.06943e-05
-3.03422e-05
5.0134e-05
-3.52638e-05
3.8406e-05
-3.89841e-05
2.64263e-05
-4.13259e-05
1.48589e-05
-4.21855e-05
4.06137e-06
-4.14765e-05
-5.8924e-06
-3.91799e-05
-1.48218e-05
-3.55643e-05
-2.25183e-05
-3.11022e-05
-2.90988e-05
-2.62817e-05
-3.49588e-05
-2.14802e-05
-4.02686e-05
-1.69301e-05
-4.49697e-05
-1.26572e-05
-4.89977e-05
-8.38196e-06
-5.22269e-05
-3.47239e-06
-5.27853e-05
-3.18847e-05
2.01169e-07
4.30623e-05
6.10856e-07
7.11366e-05
5.10722e-07
6.9132e-05
-2.73208e-07
6.14782e-05
-1.62702e-06
5.14878e-05
-3.3652e-06
4.01442e-05
-5.25385e-06
2.83149e-05
-7.04135e-06
1.66463e-05
-8.48694e-06
5.50698e-06
-9.34419e-06
-5.03507e-06
-9.38872e-06
-1.47772e-05
-8.64796e-06
-2.32591e-05
-7.42483e-06
-3.03219e-05
-6.10775e-06
-3.62759e-05
-4.96477e-06
-4.14115e-05
-4.15601e-06
-4.57785e-05
-3.67264e-06
-4.94811e-05
-3.10299e-06
-5.27966e-05
-1.62279e-06
-5.42654e-05
-3.35074e-05
3.88146e-06
3.91809e-05
9.98318e-06
6.50349e-05
1.53411e-05
6.37741e-05
1.95169e-05
5.73026e-05
2.24447e-05
4.856e-05
2.41342e-05
3.84546e-05
2.46822e-05
2.77669e-05
2.42558e-05
1.70728e-05
2.30584e-05
6.70444e-06
2.13111e-05
-3.28782e-06
1.92497e-05
-1.27159e-05
1.70475e-05
-2.10569e-05
1.47311e-05
-2.80055e-05
1.21898e-05
-3.37345e-05
9.40189e-06
-3.86236e-05
6.48227e-06
-4.28589e-05
3.63603e-06
-4.66349e-05
1.23496e-06
-5.03955e-05
-8.60454e-09
-5.30218e-05
-3.3516e-05
6.41354e-06
3.27674e-05
1.63239e-05
5.51247e-05
2.52692e-05
5.48287e-05
3.27146e-05
4.98572e-05
3.85553e-05
4.27193e-05
4.27142e-05
3.42958e-05
4.51789e-05
2.53021e-05
4.60022e-05
1.62494e-05
4.52773e-05
7.42935e-06
4.3101e-05
-1.11149e-06
3.97168e-05
-9.33166e-06
3.54339e-05
-1.67739e-05
3.05753e-05
-2.31469e-05
2.53771e-05
-2.85363e-05
1.99887e-05
-3.32353e-05
1.46118e-05
-3.74819e-05
9.47722e-06
-4.15003e-05
4.94253e-06
-4.58607e-05
1.53027e-06
-4.96095e-05
-3.19857e-05
7.64019e-06
2.51272e-05
1.94086e-05
4.33563e-05
3.00606e-05
4.41766e-05
3.9073e-05
4.08448e-05
4.63672e-05
3.54251e-05
5.18247e-05
2.88383e-05
5.53582e-05
2.17686e-05
5.69344e-05
1.46733e-05
5.65481e-05
7.81568e-06
5.41774e-05
1.25925e-06
4.99685e-05
-5.12271e-06
4.44117e-05
-1.12172e-05
3.80537e-05
-1.67889e-05
3.1383e-05
-2.18656e-05
2.47494e-05
-2.66016e-05
1.8406e-05
-3.11386e-05
1.2565e-05
-3.56593e-05
7.3289e-06
-4.06246e-05
2.70304e-06
-4.49836e-05
-2.92827e-05
7.90168e-06
1.72255e-05
2.03814e-05
3.08766e-05
3.17327e-05
3.28253e-05
4.14005e-05
3.11769e-05
4.93172e-05
2.75085e-05
5.5364e-05
2.27915e-05
5.94317e-05
1.77009e-05
6.14523e-05
1.26527e-05
6.13547e-05
7.91334e-06
5.90902e-05
3.52375e-06
5.47129e-05
-7.4546e-07
4.86817e-05
-5.18591e-06
4.16845e-05
-9.79181e-06
3.42872e-05
-1.44683e-05
2.69731e-05
-1.92876e-05
2.01562e-05
-2.43217e-05
1.40107e-05
-2.95137e-05
8.50705e-06
-3.5121e-05
3.33112e-06
-3.98076e-05
-2.59516e-05
8.35918e-06
8.86626e-06
2.17851e-05
1.74508e-05
3.39627e-05
2.06477e-05
4.42466e-05
2.0893e-05
5.24678e-05
1.92873e-05
5.85516e-05
1.67078e-05
6.24843e-05
1.37682e-05
6.43005e-05
1.08365e-05
6.40565e-05
8.15739e-06
6.17391e-05
5.84111e-06
5.74453e-05
3.54834e-06
5.15115e-05
7.47952e-07
4.45266e-05
-2.80695e-06
3.70489e-05
-6.99063e-06
2.94827e-05
-1.17214e-05
2.22179e-05
-1.70569e-05
1.55653e-05
-2.28611e-05
9.51398e-06
-2.90698e-05
3.68926e-06
-3.39828e-05
-2.22623e-05
9.57077e-06
-7.04537e-07
2.45549e-05
2.46664e-06
3.79658e-05
7.23684e-06
4.89893e-05
9.86952e-06
5.74275e-05
1.08491e-05
6.32841e-05
1.08511e-05
6.66865e-05
1.03658e-05
6.78296e-05
9.69342e-06
6.69579e-05
9.0291e-06
6.4222e-05
8.57701e-06
5.97743e-05
7.99605e-06
5.39463e-05
6.57591e-06
4.71651e-05
3.97428e-06
3.9873e-05
3.01514e-07
3.23915e-05
-4.24002e-06
2.49256e-05
-9.59102e-06
1.77394e-05
-1.56749e-05
1.09053e-05
-2.22357e-05
4.17567e-06
-2.72532e-05
-1.80867e-05
1.07752e-05
-1.14797e-05
2.70647e-05
-1.38229e-05
4.14318e-05
-7.13019e-06
5.29846e-05
-1.68331e-06
6.15941e-05
2.23956e-06
6.73209e-05
5.12428e-06
7.03737e-05
7.31301e-06
7.10419e-05
9.02523e-06
6.96405e-05
1.04304e-05
6.65048e-05
1.17128e-05
6.18794e-05
1.26214e-05
5.60236e-05
1.24317e-05
4.92778e-05
1.072e-05
4.19885e-05
7.59081e-06
3.44625e-05
3.28597e-06
2.69188e-05
-2.04731e-06
1.94297e-05
-8.1858e-06
1.19907e-05
-1.47967e-05
4.58995e-06
-1.98524e-05
-1.34967e-05
1.12716e-05
-2.27513e-05
2.78862e-05
-3.04375e-05
4.23763e-05
-2.16203e-05
5.39703e-05
-1.32773e-05
6.25494e-05
-6.33958e-06
6.81702e-05
-4.96588e-07
7.1065e-05
4.41816e-06
7.15667e-05
8.52358e-06
7.00368e-05
1.19604e-05
6.68688e-05
1.48807e-05
6.23665e-05
1.71238e-05
5.67184e-05
1.80798e-05
5.01183e-05
1.73202e-05
4.2809e-05
1.49001e-05
3.50994e-05
1.09956e-05
2.72994e-05
5.75264e-06
1.96255e-05
-5.11871e-07
1.20422e-05
-7.21346e-06
4.56475e-06
-1.2375e-05
-8.93201e-06
1.0519e-05
-3.32703e-05
2.58651e-05
-4.57836e-05
3.92507e-05
-3.5006e-05
4.99608e-05
-2.39874e-05
5.7822e-05
-1.42008e-05
6.288e-05
-5.55468e-06
6.5398e-05
1.90013e-06
6.57553e-05
8.16632e-06
6.43641e-05
1.33516e-05
6.16526e-05
1.75922e-05
5.7907e-05
2.08695e-05
5.31766e-05
2.28102e-05
4.74436e-05
2.30532e-05
4.07778e-05
2.15659e-05
3.34113e-05
1.8362e-05
2.57108e-05
1.34531e-05
1.80839e-05
7.11506e-06
1.07748e-05
9.56167e-08
3.96145e-06
-5.56168e-06
-4.97061e-06
7.91231e-06
-4.11825e-05
1.95957e-05
-5.7467e-05
2.97872e-05
-4.51975e-05
3.77382e-05
-3.19384e-05
4.32379e-05
-1.97006e-05
4.6401e-05
-8.7178e-06
4.76004e-05
7.00591e-07
4.73206e-05
8.44611e-06
4.6065e-05
1.46073e-05
4.4316e-05
1.93412e-05
4.233e-05
2.28555e-05
3.99408e-05
2.51994e-05
3.67679e-05
2.6226e-05
3.25348e-05
2.5799e-05
2.72031e-05
2.36938e-05
2.10152e-05
1.9641e-05
1.44791e-05
1.3651e-05
8.19984e-06
6.37485e-06
2.77699e-06
-1.38757e-07
-2.19362e-06
2.9069e-06
-4.40894e-05
7.86204e-06
-6.24221e-05
1.23473e-05
-4.96828e-05
1.57273e-05
-3.53184e-05
1.7814e-05
-2.17873e-05
1.87472e-05
-9.65106e-06
1.88579e-05
5.89898e-07
1.85569e-05
8.74712e-06
1.83072e-05
1.4857e-05
1.85868e-05
1.90617e-05
1.95563e-05
2.1886e-05
2.07357e-05
2.402e-05
2.12943e-05
2.56675e-05
2.05614e-05
2.6532e-05
1.82212e-05
2.60339e-05
1.43579e-05
2.35043e-05
9.5369e-06
1.84721e-05
4.74812e-06
1.11636e-05
1.16002e-06
3.44938e-06
-1.03357e-06
-4.23657e-06
-3.98529e-05
-8.27534e-06
-5.83833e-05
-1.06423e-05
-4.73158e-05
-1.1932e-05
-3.40288e-05
-1.23548e-05
-2.13645e-05
-1.19636e-05
-1.00422e-05
-1.07797e-05
-5.94008e-07
-8.85677e-06
6.82423e-06
-6.25768e-06
1.22579e-05
-3.02927e-06
1.58332e-05
6.72697e-07
1.8184e-05
4.41225e-06
2.02804e-05
7.49925e-06
2.25804e-05
9.29278e-06
2.47385e-05
9.39516e-06
2.59316e-05
7.71104e-06
2.51883e-05
4.65847e-06
2.15247e-05
1.34788e-06
1.44742e-05
-5.16331e-07
5.3136e-06
-1.54991e-06
-1.33122e-05
-2.65407e-05
-2.83257e-05
-4.33697e-05
-3.83691e-05
-3.72724e-05
-4.42671e-05
-2.81308e-05
-4.66904e-05
-1.89411e-05
-4.62344e-05
-1.04982e-05
-4.35704e-05
-3.25803e-06
-3.93685e-05
2.62236e-06
-3.42225e-05
7.11193e-06
-2.8657e-05
1.02677e-05
-2.30275e-05
1.25545e-05
-1.75484e-05
1.48013e-05
-1.25101e-05
1.75423e-05
-8.23413e-06
2.04624e-05
-5.04619e-06
2.27437e-05
-3.24653e-06
2.33886e-05
-2.87962e-06
2.11578e-05
-3.28942e-06
1.4884e-05
-2.6732e-06
4.69747e-06
-4.22305e-06
-2.21743e-05
-4.36634e-06
-4.78618e-05
-1.76823e-05
-6.71633e-05
-1.79709e-05
-8.04379e-05
-1.48561e-05
-8.83569e-05
-1.10222e-05
-9.16569e-05
-7.19831e-06
-9.12316e-05
-3.68324e-06
-8.7991e-05
-6.18246e-07
-8.27846e-05
1.90543e-06
-7.63507e-05
3.83382e-06
-6.91333e-05
5.33702e-06
-6.12325e-05
6.90056e-06
-5.25565e-05
8.86627e-06
-4.30868e-05
1.09927e-05
-3.31213e-05
1.27783e-05
-2.33428e-05
1.36102e-05
-1.48212e-05
1.26361e-05
-8.6374e-06
8.70023e-06
-4.54659e-06
6.06597e-07
-8.76963e-06
-4.36633e-06
-2.20486e-05
-4.00195e-05
-5.48755e-05
-6.58977e-05
-7.3096e-05
-7.67793e-05
-7.73975e-05
-7.54921e-05
-7.16583e-05
-6.63212e-05
-5.94207e-05
-5.05544e-05
-3.95618e-05
-2.67835e-05
-1.31734e-05
-5.37274e-07
8.16301e-06
8.76964e-06
)
;

boundaryField
{
    movingWall
    {
        type            calculated;
        value           uniform 0;
    }
    fixedWalls
    {
        type            calculated;
        value           uniform 0;
    }
    frontAndBack
    {
        type            empty;
        value           nonuniform 0();
    }
}


// ************************************************************************* //
