/*--------------------------------*- C++ -*----------------------------------*\
| =========                 |                                                 |
| \\      /  F ield         | OpenFOAM: The Open Source CFD Toolbox           |
|  \\    /   O peration     | Version:  v1912                                 |
|   \\  /    A nd           | Website:  www.openfoam.com                      |
|    \\/     M anipulation  |                                                 |
\*---------------------------------------------------------------------------*/
FoamFile
{
    version     2.0;
    format      ascii;
    class       volVectorField;
    location    "7";
    object      U;
}
// * * * * * * * * * * * * * * * * * * * * * * * * * * * * * * * * * * * * * //

dimensions      [0 1 -1 0 0 0 0];


internalField   nonuniform List<vector> 
400
(
(-0.133223 0.147848 0)
(-0.447316 0.260514 0)
(-0.90327 0.260467 0)
(-1.32105 0.234898 0)
(-1.68246 0.198129 0)
(-1.97053 0.156174 0)
(-2.18248 0.112921 0)
(-2.31983 0.0710856 0)
(-2.38748 0.0321631 0)
(-2.39245 -0.00271021 0)
(-2.34479 -0.0331948 0)
(-2.24755 -0.0608288 0)
(-2.10744 -0.0898881 0)
(-1.9213 -0.121607 0)
(-1.68502 -0.153761 0)
(-1.3994 -0.184063 0)
(-1.06894 -0.208625 0)
(-0.709964 -0.220843 0)
(-0.341054 -0.20806 0)
(-0.100214 -0.11379 0)
(-0.170144 0.41972 0)
(-0.604105 0.750603 0)
(-1.13148 0.739298 0)
(-1.59797 0.650859 0)
(-1.99388 0.536912 0)
(-2.29963 0.412296 0)
(-2.51674 0.28741 0)
(-2.6499 0.169264 0)
(-2.70608 0.0612508 0)
(-2.69549 -0.0345323 0)
(-2.62615 -0.118103 0)
(-2.50139 -0.192446 0)
(-2.32704 -0.265072 0)
(-2.11528 -0.34278 0)
(-1.85851 -0.421927 0)
(-1.55814 -0.497639 0)
(-1.21551 -0.561942 0)
(-0.843724 -0.601338 0)
(-0.444903 -0.578148 0)
(-0.124254 -0.316891 0)
(-0.0949241 0.70375 0)
(-0.373686 1.18244 0)
(-0.681935 1.13903 0)
(-0.959413 0.990526 0)
(-1.20253 0.807174 0)
(-1.39196 0.609541 0)
(-1.52733 0.413565 0)
(-1.60894 0.229744 0)
(-1.63831 0.0628599 0)
(-1.62332 -0.0858369 0)
(-1.56384 -0.215283 0)
(-1.4672 -0.328844 0)
(-1.33374 -0.433986 0)
(-1.18575 -0.539392 0)
(-1.02029 -0.64441 0)
(-0.842563 -0.743889 0)
(-0.654599 -0.830608 0)
(-0.464516 -0.892447 0)
(-0.259123 -0.882533 0)
(-0.0679619 -0.515973 0)
(-0.0301992 0.842788 0)
(-0.16461 1.39815 0)
(-0.291123 1.34521 0)
(-0.418616 1.17578 0)
(-0.547595 0.963931 0)
(-0.657841 0.731479 0)
(-0.746535 0.496877 0)
(-0.808993 0.273146 0)
(-0.840798 0.0669887 0)
(-0.844461 -0.120293 0)
(-0.816947 -0.285694 0)
(-0.755037 -0.428178 0)
(-0.667672 -0.552781 0)
(-0.57354 -0.667805 0)
(-0.475956 -0.775632 0)
(-0.381579 -0.87369 0)
(-0.291616 -0.95795 0)
(-0.213642 -1.02248 0)
(-0.13119 -1.02573 0)
(-0.031105 -0.613178 0)
(0.0206206 0.87996 0)
(-0.00270755 1.45472 0)
(0.0153095 1.40799 0)
(0.0135943 1.24474 0)
(-0.0127532 1.0348 0)
(-0.0455451 0.798772 0)
(-0.0841021 0.554898 0)
(-0.123094 0.316684 0)
(-0.155927 0.0916873 0)
(-0.181712 -0.118575 0)
(-0.194785 -0.31 0)
(-0.185538 -0.475078 0)
(-0.160644 -0.613428 0)
(-0.133825 -0.732401 0)
(-0.109215 -0.836734 0)
(-0.0887076 -0.926152 0)
(-0.0746334 -1.00203 0)
(-0.0722972 -1.06599 0)
(-0.06114 -1.08439 0)
(-0.0098037 -0.661464 0)
(0.0634973 0.834865 0)
(0.126594 1.3818 0)
(0.258719 1.34812 0)
(0.362725 1.20511 0)
(0.429011 1.01566 0)
(0.47416 0.798463 0)
(0.494937 0.569926 0)
(0.49442 0.342314 0)
(0.477551 0.122738 0)
(0.445805 -0.0875499 0)
(0.404141 -0.284065 0)
(0.361875 -0.45645 0)
(0.319722 -0.599001 0)
(0.271375 -0.716877 0)
(0.217216 -0.817091 0)
(0.158735 -0.902344 0)
(0.101996 -0.975418 0)
(0.0430267 -1.04409 0)
(-0.00229178 -1.08397 0)
(0.0103698 -0.676942 0)
(0.0947576 0.727134 0)
(0.215297 1.21303 0)
(0.422452 1.19641 0)
(0.595994 1.08108 0)
(0.723482 0.921482 0)
(0.822937 0.735111 0)
(0.888258 0.536741 0)
(0.920212 0.337175 0)
(0.920754 0.142617 0)
(0.890761 -0.0459973 0)
(0.830927 -0.22593 0)
(0.754764 -0.386255 0)
(0.662241 -0.520922 0)
(0.56174 -0.631896 0)
(0.453952 -0.726725 0)
(0.344952 -0.810115 0)
(0.240816 -0.886714 0)
(0.137324 -0.968149 0)
(0.0514231 -1.03374 0)
(0.0303787 -0.660907 0)
(0.112894 0.582468 0)
(0.2594 0.990022 0)
(0.501595 0.994701 0)
(0.708704 0.911252 0)
(0.865319 0.785483 0)
(0.992559 0.635066 0)
(1.08209 0.47383 0)
(1.13293 0.311401 0)
(1.14465 0.153259 0)
(1.11699 0.000672479 0)
(1.04818 -0.147481 0)
(0.94832 -0.284579 0)
(0.827551 -0.404983 0)
(0.695071 -0.509592 0)
(0.560365 -0.602728 0)
(0.429051 -0.688615 0)
(0.308019 -0.772814 0)
(0.193288 -0.865508 0)
(0.0909103 -0.948896 0)
(0.0472038 -0.616771 0)
(0.118651 0.425889 0)
(0.272767 0.746635 0)
(0.527803 0.774196 0)
(0.749816 0.723656 0)
(0.917821 0.631743 0)
(1.05716 0.517699 0)
(1.1582 0.395317 0)
(1.21925 0.273388 0)
(1.23886 0.15723 0)
(1.21418 0.0476435 0)
(1.14751 -0.0588816 0)
(1.03936 -0.164913 0)
(0.907375 -0.266999 0)
(0.760197 -0.365033 0)
(0.611395 -0.461058 0)
(0.466421 -0.556997 0)
(0.340883 -0.653506 0)
(0.218421 -0.758898 0)
(0.111875 -0.850377 0)
(0.0584576 -0.554536 0)
(0.122787 0.264704 0)
(0.29309 0.488893 0)
(0.56428 0.538632 0)
(0.803027 0.522567 0)
(0.979114 0.467809 0)
(1.12134 0.393253 0)
(1.22089 0.312009 0)
(1.27858 0.231955 0)
(1.29334 0.158261 0)
(1.26719 0.0921499 0)
(1.19958 0.0276805 0)
(1.09674 -0.0437199 0)
(0.963837 -0.125218 0)
(0.817153 -0.213889 0)
(0.664878 -0.310053 0)
(0.51323 -0.415093 0)
(0.377276 -0.526054 0)
(0.243559 -0.645746 0)
(0.126487 -0.742431 0)
(0.0625755 -0.484721 0)
(0.13613 0.0852454 0)
(0.332841 0.204404 0)
(0.635242 0.283129 0)
(0.893352 0.310134 0)
(1.07855 0.301891 0)
(1.22002 0.274354 0)
(1.31117 0.238832 0)
(1.35653 0.202126 0)
(1.35688 0.168662 0)
(1.31914 0.141867 0)
(1.24577 0.114216 0)
(1.14353 0.0730275 0)
(1.01496 0.0120257 0)
(0.871841 -0.0665124 0)
(0.7227 -0.159453 0)
(0.572134 -0.266994 0)
(0.427083 -0.387802 0)
(0.280283 -0.516614 0)
(0.145318 -0.61625 0)
(0.0655985 -0.405682 0)
(0.149961 -0.11889 0)
(0.369102 -0.109943 0)
(0.699384 0.00360148 0)
(0.969358 0.0833363 0)
(1.16181 0.131327 0)
(1.30332 0.159256 0)
(1.38922 0.175603 0)
(1.42611 0.185645 0)
(1.41676 0.19298 0)
(1.36602 0.20163 0)
(1.28867 0.205698 0)
(1.18476 0.190037 0)
(1.05738 0.146808 0)
(0.914295 0.0782425 0)
(0.764718 -0.0107469 0)
(0.612654 -0.117755 0)
(0.466354 -0.239948 0)
(0.309208 -0.37252 0)
(0.159149 -0.473149 0)
(0.0692154 -0.31586 0)
(0.153486 -0.342955 0)
(0.382943 -0.444179 0)
(0.719232 -0.289102 0)
(0.98835 -0.150899 0)
(1.18172 -0.0421656 0)
(1.32183 0.0452516 0)
(1.40484 0.116621 0)
(1.4385 0.1754 0)
(1.42626 0.224642 0)
(1.37206 0.267583 0)
(1.29579 0.299992 0)
(1.19675 0.308036 0)
(1.07388 0.282824 0)
(0.931814 0.226118 0)
(0.78 0.14264 0)
(0.622977 0.0359187 0)
(0.470797 -0.0881466 0)
(0.31288 -0.220243 0)
(0.157808 -0.321266 0)
(0.0668025 -0.223546 0)
(0.142442 -0.566723 0)
(0.354828 -0.771873 0)
(0.668093 -0.574419 0)
(0.915672 -0.379204 0)
(1.09394 -0.210638 0)
(1.22111 -0.0642892 0)
(1.29433 0.0612341 0)
(1.32279 0.167213 0)
(1.31029 0.256092 0)
(1.26092 0.330596 0)
(1.19695 0.38854 0)
(1.11678 0.419204 0)
(1.01287 0.41412 0)
(0.88625 0.373689 0)
(0.744478 0.300293 0)
(0.591354 0.196284 0)
(0.438718 0.0685335 0)
(0.28359 -0.0686775 0)
(0.136856 -0.175248 0)
(0.0570406 -0.135935 0)
(0.110682 -0.758762 0)
(0.265186 -1.05266 0)
(0.509979 -0.818763 0)
(0.696894 -0.572775 0)
(0.824409 -0.349376 0)
(0.908313 -0.149532 0)
(0.948588 0.0231403 0)
(0.957081 0.167477 0)
(0.939166 0.285413 0)
(0.900011 0.379724 0)
(0.862886 0.451586 0)
(0.826906 0.496926 0)
(0.773992 0.510134 0)
(0.698606 0.489591 0)
(0.602789 0.43373 0)
(0.485459 0.340675 0)
(0.357168 0.214417 0)
(0.221428 0.0703506 0)
(0.0964851 -0.0502414 0)
(0.0404956 -0.066704 0)
(0.0535117 -0.875087 0)
(0.0962429 -1.23101 0)
(0.214209 -0.975048 0)
(0.297094 -0.691407 0)
(0.344919 -0.426266 0)
(0.372212 -0.187966 0)
(0.37947 0.0147113 0)
(0.37708 0.17841 0)
(0.369068 0.304397 0)
(0.359678 0.395764 0)
(0.372346 0.460202 0)
(0.405316 0.505686 0)
(0.428225 0.532634 0)
(0.426369 0.536403 0)
(0.396756 0.508866 0)
(0.333205 0.440701 0)
(0.243846 0.327949 0)
(0.1374 0.180945 0)
(0.0426169 0.0401252 0)
(0.0188599 -0.0265292 0)
(-0.0286133 -0.868516 0)
(-0.142228 -1.24965 0)
(-0.186174 -1.00015 0)
(-0.21982 -0.712375 0)
(-0.243021 -0.4394 0)
(-0.245271 -0.195163 0)
(-0.230762 0.00909057 0)
(-0.19826 0.169449 0)
(-0.152872 0.286686 0)
(-0.100294 0.363858 0)
(-0.0309863 0.413764 0)
(0.0531461 0.454664 0)
(0.127215 0.493994 0)
(0.176024 0.525052 0)
(0.196943 0.532892 0)
(0.18089 0.500245 0)
(0.131129 0.412045 0)
(0.0552307 0.266363 0)
(-0.0113688 0.0962171 0)
(-0.00399421 -0.0205709 0)
(-0.125817 -0.695517 0)
(-0.442422 -1.07051 0)
(-0.680283 -0.889177 0)
(-0.833831 -0.651281 0)
(-0.921016 -0.420545 0)
(-0.939587 -0.213024 0)
(-0.906428 -0.0388747 0)
(-0.834105 0.0990693 0)
(-0.738455 0.201319 0)
(-0.632496 0.270043 0)
(-0.521626 0.317197 0)
(-0.403771 0.362233 0)
(-0.294909 0.416083 0)
(-0.202186 0.471803 0)
(-0.125392 0.511695 0)
(-0.0739407 0.514481 0)
(-0.0521376 0.456007 0)
(-0.0642068 0.318349 0)
(-0.0782261 0.115262 0)
(-0.0251366 -0.0555369 0)
(-0.209496 -0.320329 0)
(-0.722832 -0.649549 0)
(-1.17541 -0.601661 0)
(-1.49304 -0.479152 0)
(-1.70791 -0.344802 0)
(-1.81833 -0.216058 0)
(-1.84403 -0.101382 0)
(-1.80309 -0.00434038 0)
(-1.7152 0.0733317 0)
(-1.598 0.131503 0)
(-1.46221 0.17656 0)
(-1.30664 0.222129 0)
(-1.14002 0.278208 0)
(-0.95888 0.339038 0)
(-0.762003 0.389859 0)
(-0.560073 0.41232 0)
(-0.371311 0.382036 0)
(-0.229488 0.271185 0)
(-0.131975 0.0681722 0)
(-0.0181287 -0.132212 0)
(0.0924254 -0.0814697 0)
(-0.24295 -0.213855 0)
(-0.63664 -0.218848 0)
(-0.959462 -0.190146 0)
(-1.2221 -0.150209 0)
(-1.40579 -0.10759 0)
(-1.51409 -0.0663811 0)
(-1.55525 -0.0287533 0)
(-1.54016 0.00380252 0)
(-1.48178 0.0303203 0)
(-1.38945 0.0528067 0)
(-1.26608 0.0770993 0)
(-1.10892 0.106624 0)
(-0.909883 0.13824 0)
(-0.669168 0.165996 0)
(-0.399027 0.18196 0)
(-0.128164 0.174798 0)
(0.0866677 0.12907 0)
(0.203667 0.0313264 0)
(0.251767 -0.0773797 0)
)
;

boundaryField
{
    movingWall
    {
        type            fixedValue;
        value           uniform (1 0 0);
    }
    fixedWalls
    {
        type            noSlip;
    }
    frontAndBack
    {
        type            empty;
    }
}


// ************************************************************************* //
