/*--------------------------------*- C++ -*----------------------------------*\
| =========                 |                                                 |
| \\      /  F ield         | OpenFOAM: The Open Source CFD Toolbox           |
|  \\    /   O peration     | Version:  v1912                                 |
|   \\  /    A nd           | Website:  www.openfoam.com                      |
|    \\/     M anipulation  |                                                 |
\*---------------------------------------------------------------------------*/
FoamFile
{
    version     2.0;
    format      ascii;
    class       volScalarField;
    location    "10";
    object      p;
}
// * * * * * * * * * * * * * * * * * * * * * * * * * * * * * * * * * * * * * //

dimensions      [0 2 -2 0 0 0 0];


internalField   nonuniform List<scalar> 
400
(
3.44225e-05
2.59741
3.47732
2.87365
1.29431
-0.752084
-3.01867
-5.30123
-7.62016
-10.3163
-13.6001
-17.4352
-21.7805
-26.6453
-32.0252
-37.7552
-43.3532
-47.7511
-49.5113
-47.2858
-0.260322
1.34746
2.0654
1.51872
0.0888401
-1.78744
-3.92739
-6.05744
-8.19401
-10.7296
-13.8186
-17.3737
-21.3272
-25.6998
-30.4875
-35.5373
-40.4399
-44.2795
-45.8864
-44.5702
0.972184
1.44787
1.60128
0.772028
-0.713051
-2.52903
-4.58174
-6.60349
-8.59939
-10.9354
-13.8065
-17.1495
-20.8373
-24.885
-29.2838
-33.9074
-38.4324
-42.1509
-44.1608
-44.2534
1.82039
1.38366
0.921247
-0.200915
-1.74233
-3.47113
-5.34909
-7.182
-8.99912
-11.0938
-13.7501
-16.9747
-20.5462
-24.4446
-28.6387
-33.0252
-37.3945
-41.1995
-43.689
-44.9474
2.36916
1.20182
0.224283
-1.15032
-2.76655
-4.44031
-6.21393
-7.96066
-9.6005
-11.3811
-13.7502
-16.8328
-20.363
-24.244
-28.4371
-32.8442
-37.2496
-41.1671
-44.0178
-46.1152
2.86532
1.16325
-0.223276
-1.83133
-3.56214
-5.24575
-6.9245
-8.68645
-10.442
-12.2152
-14.4027
-17.3321
-20.8566
-24.7425
-28.9373
-33.3277
-37.7262
-41.6957
-44.7431
-47.3438
3.13925
1.0757
-0.592963
-2.37969
-4.23115
-6.01187
-7.81205
-9.72993
-11.6264
-13.5187
-15.6637
-18.4769
-21.9772
-25.8047
-29.9019
-34.1743
-38.4491
-42.3225
-45.3971
-48.2137
3.0999
0.770633
-1.15003
-3.14842
-5.16515
-7.04413
-8.89182
-10.8466
-12.8543
-14.8749
-17.0464
-19.7482
-23.093
-26.7835
-30.7001
-34.7814
-38.8961
-42.6775
-45.7575
-48.6162
2.85205
0.346866
-1.75264
-3.91002
-6.045
-7.9797
-9.83771
-11.7691
-13.8328
-15.9194
-18.152
-20.7775
-23.8734
-27.3814
-31.1495
-35.1038
-39.1354
-42.9034
-46.0388
-48.9198
2.5006
-0.0753998
-2.24857
-4.46893
-6.64532
-8.57315
-10.3908
-12.2592
-14.2933
-16.4599
-18.7894
-21.4137
-24.4268
-27.7716
-31.421
-35.3558
-39.4238
-43.2914
-46.581
-49.6092
2.10408
-0.428725
-2.54278
-4.67659
-6.81052
-8.69336
-10.4608
-12.2847
-14.2884
-16.5161
-18.9698
-21.7244
-24.8058
-28.1703
-31.8158
-35.7508
-39.9402
-43.999
-47.5273
-50.8541
1.78573
-0.633094
-2.62029
-4.5881
-6.55249
-8.31811
-10.0349
-11.869
-13.9248
-16.2261
-18.815
-21.755
-25.0266
-28.5999
-32.4234
-36.4918
-40.7826
-44.9955
-48.7567
-52.4127
1.67411
-0.66723
-2.53265
-4.32165
-6.08357
-7.67362
-9.27048
-11.1239
-13.3072
-15.7508
-18.471
-21.565
-25.0901
-28.9567
-33.0983
-37.4581
-41.9273
-46.1873
-49.9818
-53.8299
1.50856
-0.712102
-2.40437
-4.02024
-5.61897
-7.04868
-8.51573
-10.3651
-12.6762
-15.2666
-18.0972
-21.2969
-24.968
-29.1125
-33.625
-38.3346
-43.059
-47.3398
-50.9742
-54.6748
0.853575
-1.05824
-2.47009
-3.87748
-5.28899
-6.57014
-7.96207
-9.83559
-12.2504
-14.9368
-17.793
-20.9958
-24.7122
-28.9896
-33.7701
-38.8643
-43.8738
-48.1629
-51.5186
-54.767
-0.454671
-1.79692
-2.75787
-3.84333
-4.9966
-6.07228
-7.35149
-9.27764
-11.8457
-14.6522
-17.5869
-20.8142
-24.5321
-28.8623
-33.7903
-39.1314
-44.4289
-48.7273
-51.6433
-54.1623
-2.08852
-2.48437
-2.85367
-3.65505
-4.58207
-5.46611
-6.65732
-8.67302
-11.4715
-14.5396
-17.6766
-20.9817
-24.6846
-29.0328
-34.0844
-39.5973
-45.032
-49.2827
-51.6084
-52.9789
-4.21304
-3.27993
-2.75624
-3.12018
-3.91013
-4.77221
-6.08395
-8.31142
-11.2709
-14.5635
-17.9553
-21.4806
-25.3737
-29.8911
-35.1124
-40.7977
-46.2712
-50.269
-51.749
-51.4507
-7.37899
-4.41087
-2.81785
-2.67251
-3.36254
-4.34178
-5.79127
-8.14421
-11.2693
-14.7863
-18.4976
-22.3907
-26.6724
-31.6422
-37.3632
-43.4465
-49.0178
-52.5962
-52.8831
-50.2266
-9.07882
-3.84666
-1.83132
-1.70247
-2.49798
-3.70744
-5.39968
-7.88936
-11.1776
-14.9547
-19.0443
-23.4607
-28.4298
-34.1951
-40.737
-47.5601
-53.5697
-57.0155
-56.1599
-50.649
)
;

boundaryField
{
    movingWall
    {
        type            zeroGradient;
    }
    fixedWalls
    {
        type            zeroGradient;
    }
    frontAndBack
    {
        type            empty;
    }
}


// ************************************************************************* //
