/*--------------------------------*- C++ -*----------------------------------*\
| =========                 |                                                 |
| \\      /  F ield         | OpenFOAM: The Open Source CFD Toolbox           |
|  \\    /   O peration     | Version:  v1912                                 |
|   \\  /    A nd           | Website:  www.openfoam.com                      |
|    \\/     M anipulation  |                                                 |
\*---------------------------------------------------------------------------*/
FoamFile
{
    version     2.0;
    format      ascii;
    class       surfaceScalarField;
    location    "10";
    object      phi;
}
// * * * * * * * * * * * * * * * * * * * * * * * * * * * * * * * * * * * * * //

dimensions      [0 3 -1 0 0 0 0];
oriented        oriented;


internalField   nonuniform List<scalar> 
760
(
2.94095e-05
-2.94099e-05
7.71545e-05
-4.7745e-05
0.000124251
-4.70965e-05
0.000164354
-4.01029e-05
0.000195681
-3.13274e-05
0.000218686
-2.30043e-05
0.000234812
-1.61264e-05
0.000246381
-1.15688e-05
0.000254879
-8.49775e-06
0.000260227
-5.34782e-06
0.000261767
-1.54027e-06
0.000258752
3.01443e-06
0.000250507
8.24516e-06
0.000236122
1.43847e-05
0.000214494
2.16283e-05
0.000184432
3.00623e-05
0.000144755
3.96771e-05
9.45849e-05
5.01699e-05
3.66281e-05
5.7957e-05
3.66283e-05
2.26294e-05
-5.20391e-05
5.84205e-05
-8.35359e-05
9.36145e-05
-8.22903e-05
0.000124912
-7.14004e-05
0.000151151
-5.75667e-05
0.00017222
-4.40728e-05
0.000188816
-3.27228e-05
0.000201966
-2.4718e-05
0.000212554
-1.90863e-05
0.000221235
-1.40286e-05
0.000227568
-7.87367e-06
0.000230231
3.51762e-07
0.000227955
1.0521e-05
0.00021946
2.28799e-05
0.000203473
3.76155e-05
0.000178697
5.48385e-05
0.000143857
7.45165e-05
9.76382e-05
9.63887e-05
4.10903e-05
0.000114505
7.77187e-05
2.21444e-06
-5.42536e-05
1.06424e-05
-9.19637e-05
2.27299e-05
-9.43778e-05
3.71629e-05
-8.58333e-05
5.18369e-05
-7.22406e-05
6.51513e-05
-5.73873e-05
7.62684e-05
-4.38399e-05
8.469e-05
-3.31397e-05
9.08701e-05
-2.52663e-05
9.60556e-05
-1.92142e-05
0.000100615
-1.2433e-05
0.000103729
-2.76189e-06
0.000104363
9.88654e-06
0.000101623
2.56201e-05
9.47904e-05
4.4448e-05
8.33862e-05
6.62427e-05
6.71027e-05
9.08002e-05
4.5785e-05
0.000117706
1.9472e-05
0.000140818
9.71908e-05
-5.74791e-06
-4.85055e-05
-1.0965e-05
-8.67465e-05
-1.10439e-05
-9.42989e-05
-5.6305e-06
-9.12467e-05
3.30006e-06
-8.11711e-05
1.315e-05
-6.72371e-05
2.10973e-05
-5.17872e-05
2.4742e-05
-3.67845e-05
2.44536e-05
-2.49778e-05
2.23645e-05
-1.7125e-05
2.02801e-05
-1.03487e-05
1.88495e-05
-1.3314e-06
1.76031e-05
1.1133e-05
1.62598e-05
2.69635e-05
1.44575e-05
4.62501e-05
1.19599e-05
6.87401e-05
9.1176e-06
9.36425e-05
6.4496e-06
0.000120375
3.1717e-06
0.000144096
0.000100362
-8.45533e-06
-4.00503e-05
-2.05142e-05
-7.46875e-05
-2.87556e-05
-8.60576e-05
-3.10505e-05
-8.89517e-05
-2.78523e-05
-8.43694e-05
-2.12736e-05
-7.38159e-05
-1.388e-05
-5.91808e-05
-9.34453e-06
-4.13198e-05
-1.08269e-05
-2.34955e-05
-1.82421e-05
-9.71008e-06
-2.8118e-05
-4.72821e-07
-3.72716e-05
7.82223e-06
-4.44791e-05
1.83406e-05
-4.84353e-05
3.09195e-05
-4.81092e-05
4.5924e-05
-4.28696e-05
6.35005e-05
-3.31892e-05
8.39622e-05
-2.0632e-05
0.000107818
-7.55538e-06
0.000131019
9.28071e-05
-1.17492e-05
-2.83011e-05
-3.05806e-05
-5.58561e-05
-4.80146e-05
-6.86237e-05
-6.12029e-05
-7.57637e-05
-6.91137e-05
-7.64585e-05
-7.23887e-05
-7.05409e-05
-7.30975e-05
-5.8472e-05
-7.30123e-05
-4.14052e-05
-7.43648e-05
-2.2143e-05
-7.97884e-05
-4.28646e-06
-8.87893e-05
8.52799e-06
-9.79615e-05
1.69944e-05
-0.000104123
2.45023e-05
-0.000104874
3.16702e-05
-9.84564e-05
3.95062e-05
-8.44085e-05
4.94527e-05
-6.37944e-05
6.33481e-05
-3.92742e-05
8.32972e-05
-1.47492e-05
0.000106494
7.80579e-05
-1.3945e-05
-1.43562e-05
-3.75096e-05
-3.22918e-05
-6.21584e-05
-4.39749e-05
-8.54604e-05
-5.24617e-05
-0.000105643
-5.62764e-05
-0.000121356
-5.48278e-05
-0.000131854
-4.79741e-05
-0.000137253
-3.60065e-05
-0.000139797
-1.95988e-05
-0.000142058
-2.02539e-06
-0.000145829
1.22994e-05
-0.000149302
2.04671e-05
-0.000148594
2.37947e-05
-0.000141753
2.48286e-05
-0.000127238
2.49916e-05
-0.00010492
2.71345e-05
-7.66699e-05
3.50978e-05
-4.59783e-05
5.26057e-05
-1.70156e-05
7.75312e-05
6.10424e-05
-1.43028e-05
-5.34111e-08
-3.91283e-05
-7.46643e-06
-6.54752e-05
-1.7628e-05
-9.13116e-05
-2.66253e-05
-0.000115074
-3.25145e-05
-0.00013521
-3.46918e-05
-0.000150441
-3.27428e-05
-0.000159949
-2.64982e-05
-0.000164188
-1.53605e-05
-0.000164641
-1.57201e-06
-0.000163498
1.11562e-05
-0.000161013
1.79822e-05
-0.000154543
1.73249e-05
-0.000142315
1.26007e-05
-0.000123707
6.38327e-06
-9.9189e-05
2.61674e-06
-7.06139e-05
6.5227e-06
-4.10726e-05
2.30645e-05
-1.44492e-05
5.09078e-05
4.65932e-05
-1.39733e-05
1.39199e-05
-3.86768e-05
1.7237e-05
-6.45532e-05
8.24852e-06
-8.96268e-05
-1.55176e-06
-0.00011284
-9.30149e-06
-0.000132954
-1.45782e-05
-0.000148711
-1.69857e-05
-0.000159005
-1.62041e-05
-0.000162786
-1.15789e-05
-0.00016106
-3.29787e-06
-0.000155185
5.28125e-06
-0.000146983
9.77937e-06
-0.000137234
7.5768e-06
-0.000123888
-7.45718e-07
-0.000105882
-1.16225e-05
-8.36662e-05
-1.95993e-05
-5.86107e-05
-1.85328e-05
-3.30881e-05
-2.458e-06
-1.07123e-05
2.85319e-05
3.58808e-05
-1.33301e-05
2.72501e-05
-3.73317e-05
4.12385e-05
-6.25586e-05
3.34755e-05
-8.66036e-05
2.24932e-05
-0.000108647
1.27422e-05
-0.000127844
4.61846e-06
-0.000143222
-1.60735e-06
-0.000153768
-5.65806e-06
-0.000158113
-7.23368e-06
-0.000155575
-5.83638e-06
-0.00014717
-3.12345e-06
-0.000135346
-2.04435e-06
-0.00012227
-5.49909e-06
-0.000108723
-1.42936e-05
-9.36367e-05
-2.67083e-05
-7.538e-05
-3.7856e-05
-5.40683e-05
-3.98445e-05
-3.10532e-05
-2.54732e-05
-9.89615e-06
7.37473e-06
2.59846e-05
-1.2189e-05
3.94392e-05
-3.44971e-05
6.35466e-05
-5.89055e-05
5.78839e-05
-8.35127e-05
4.71004e-05
-0.000106393
3.56221e-05
-0.000126336
2.4562e-05
-0.000142492
1.45487e-05
-0.000154228
6.07751e-06
-0.000160681
-7.80838e-07
-0.000160325
-6.19214e-06
-0.000153077
-1.03715e-05
-0.00014047
-1.46508e-05
-0.000125167
-2.08022e-05
-0.000109554
-2.99063e-05
-9.45784e-05
-4.16843e-05
-7.89694e-05
-5.34649e-05
-5.99984e-05
-5.88155e-05
-3.68909e-05
-4.85807e-05
-1.29676e-05
-1.65487e-05
1.3017e-05
-1.08823e-05
5.03216e-05
-3.07288e-05
8.33931e-05
-5.36126e-05
8.07676e-05
-7.86767e-05
7.21644e-05
-0.00010389
6.08353e-05
-0.000127008
4.76802e-05
-0.000146111
3.36521e-05
-0.000160556
2.05226e-05
-0.00017018
8.84311e-06
-0.000174043
-2.32924e-06
-0.000170909
-1.35056e-05
-0.000160811
-2.47485e-05
-0.000145634
-3.59789e-05
-0.000127658
-4.78829e-05
-0.000109078
-6.02646e-05
-9.07331e-05
-7.18093e-05
-7.08526e-05
-7.8696e-05
-4.6307e-05
-7.31263e-05
-1.78637e-05
-4.4992e-05
-4.84674e-06
-1.17051e-05
6.20267e-05
-3.0339e-05
0.000102027
-5.13514e-05
0.00010178
-7.5119e-05
9.59321e-05
-0.00010066
8.63761e-05
-0.000125653
7.2673e-05
-0.000147793
5.57928e-05
-0.000165545
3.82744e-05
-0.000178659
2.19567e-05
-0.000186715
5.72747e-06
-0.00018857
-1.16514e-05
-0.000183321
-2.9997e-05
-0.00017075
-4.85501e-05
-0.000152495
-6.61377e-05
-0.000130601
-8.21585e-05
-0.000106752
-9.56581e-05
-8.15615e-05
-0.000103887
-5.37111e-05
-0.000100977
-2.1913e-05
-7.67902e-05
-2.67597e-05
-1.35011e-05
7.55279e-05
-3.26214e-05
0.000121147
-5.25145e-05
0.000121673
-7.36844e-05
0.000117102
-9.58025e-05
0.000108494
-0.000117787
9.46579e-05
-0.000138345
7.63505e-05
-0.000156209
5.61382e-05
-0.00017064
3.63875e-05
-0.000181221
1.6309e-05
-0.000186901
-5.9716e-06
-0.000186455
-3.04423e-05
-0.000179002
-5.60034e-05
-0.00016409
-8.10499e-05
-0.000142674
-0.000103574
-0.000116859
-0.000121473
-8.80141e-05
-0.000132732
-5.65563e-05
-0.000132435
-2.30579e-05
-0.000110289
-4.98173e-05
-1.23582e-05
8.78861e-05
-2.91151e-05
0.000137904
-4.49657e-05
0.000137524
-5.96235e-05
0.00013176
-7.33515e-05
0.000122222
-8.65994e-05
0.000107906
-9.90643e-05
8.88155e-05
-0.000110741
6.78148e-05
-0.000121687
4.73341e-05
-0.000131411
2.60326e-05
-0.000139321
1.93888e-06
-0.000144082
-2.56818e-05
-0.000143981
-5.61038e-05
-0.000137711
-8.73208e-05
-0.000124513
-0.000116771
-0.000104714
-0.000141272
-8.02962e-05
-0.000157151
-5.19837e-05
-0.000160747
-2.10046e-05
-0.000141268
-7.08219e-05
-6.77923e-06
9.46654e-05
-1.32259e-05
0.000144351
-1.58048e-05
0.000140103
-1.54614e-05
0.000131416
-1.39993e-05
0.00012076
-1.32934e-05
0.0001072
-1.4603e-05
9.01252e-05
-1.78616e-05
7.10733e-05
-2.32252e-05
5.26976e-05
-3.0958e-05
3.37654e-05
-4.08122e-05
1.17932e-05
-5.15159e-05
-1.49781e-05
-6.10652e-05
-4.65548e-05
-6.74006e-05
-8.09856e-05
-6.89498e-05
-0.000115222
-6.43716e-05
-0.00014585
-5.33081e-05
-0.000168214
-3.70347e-05
-0.00017702
-1.58774e-05
-0.000162425
-8.66993e-05
-1.31972e-06
9.59852e-05
3.86915e-06
0.000139162
1.67681e-05
0.000127204
3.55444e-05
0.00011264
5.55273e-05
0.000100777
7.2903e-05
8.98244e-05
8.51613e-05
7.78669e-05
9.23342e-05
6.39004e-05
9.61558e-05
4.88761e-05
9.61578e-05
3.37635e-05
9.10304e-05
1.69204e-05
8.00803e-05
-4.02828e-06
6.392e-05
-3.03944e-05
4.47086e-05
-6.17741e-05
2.54529e-05
-9.59667e-05
8.86031e-06
-0.000129258
-2.65944e-06
-0.000156694
-7.85153e-06
-0.000171828
-5.78066e-06
-0.000164496
-9.24799e-05
8.08424e-06
8.79008e-05
2.90662e-05
0.00011818
5.54128e-05
0.000100857
8.54055e-05
8.26476e-05
0.000116394
6.97888e-05
0.000145178
6.10401e-05
0.000170704
5.23408e-05
0.000192167
4.24385e-05
0.000209014
3.20285e-05
0.000220828
2.19492e-05
0.000225938
1.18109e-05
0.000222311
-4.01183e-07
0.000208919
-1.70026e-05
0.000185748
-3.86038e-05
0.000154179
-6.43974e-05
0.000117208
-9.22867e-05
7.85024e-05
-0.000117989
4.21678e-05
-0.000135493
1.28867e-05
-0.000135215
-7.95933e-05
3.44997e-05
5.34011e-05
8.63465e-05
6.63331e-05
0.000132908
5.42949e-05
0.000173686
4.18697e-05
0.00021088
3.25947e-05
0.000245109
2.68115e-05
0.000275606
2.18439e-05
0.000301868
1.61766e-05
0.000323308
1.05879e-05
0.000339507
5.75037e-06
0.000349657
1.66042e-06
0.000351751
-2.49453e-06
0.000342901
-8.1533e-06
0.000320991
-1.66939e-05
0.00028497
-2.83761e-05
0.000234854
-4.21711e-05
0.000172749
-5.58831e-05
0.000103415
-6.61594e-05
3.6514e-05
-6.83135e-05
-4.30792e-05
5.34011e-05
0.000119734
0.000174029
0.000215899
0.000248493
0.000275305
0.000297149
0.000313325
0.000323913
0.000329664
0.000331324
0.00032883
0.000320676
0.000303983
0.000275607
0.000233435
0.000177552
0.000111393
4.30792e-05
)
;

boundaryField
{
    movingWall
    {
        type            calculated;
        value           uniform 0;
    }
    fixedWalls
    {
        type            calculated;
        value           uniform 0;
    }
    frontAndBack
    {
        type            empty;
        value           nonuniform 0();
    }
}


// ************************************************************************* //
