/*--------------------------------*- C++ -*----------------------------------*\
| =========                 |                                                 |
| \\      /  F ield         | OpenFOAM: The Open Source CFD Toolbox           |
|  \\    /   O peration     | Version:  v1912                                 |
|   \\  /    A nd           | Website:  www.openfoam.com                      |
|    \\/     M anipulation  |                                                 |
\*---------------------------------------------------------------------------*/
FoamFile
{
    version     2.0;
    format      ascii;
    class       volVectorField;
    location    "10";
    object      U;
}
// * * * * * * * * * * * * * * * * * * * * * * * * * * * * * * * * * * * * * //

dimensions      [0 1 -1 0 0 0 0];


internalField   nonuniform List<vector> 
400
(
(0.31567 -0.378431 0)
(1.03939 -0.605327 0)
(2.03204 -0.590891 0)
(2.91519 -0.494844 0)
(3.63872 -0.37826 0)
(4.17922 -0.270809 0)
(4.56088 -0.183956 0)
(4.83232 -0.125659 0)
(5.0348 -0.0865521 0)
(5.16769 -0.047162 0)
(5.24017 -0.000206464 0)
(5.22922 0.0542222 0)
(5.12144 0.11554 0)
(4.89901 0.186815 0)
(4.54019 0.271178 0)
(4.02152 0.370441 0)
(3.31298 0.484744 0)
(2.41433 0.609114 0)
(1.3016 0.707082 0)
(0.431078 0.474803 0)
(0.20004 -0.875306 0)
(0.819772 -1.42357 0)
(1.53072 -1.39241 0)
(2.19516 -1.18708 0)
(2.78229 -0.935886 0)
(3.25609 -0.698403 0)
(3.62158 -0.50342 0)
(3.93175 -0.372056 0)
(4.16305 -0.280293 0)
(4.34544 -0.189695 0)
(4.50044 -0.078565 0)
(4.59966 0.0617514 0)
(4.61067 0.228909 0)
(4.50767 0.428541 0)
(4.26437 0.665711 0)
(3.85645 0.943326 0)
(3.24893 1.26029 0)
(2.44709 1.60796 0)
(1.41678 1.87004 0)
(0.436344 1.20973 0)
(-0.0177287 -1.12247 0)
(0.142235 -1.84558 0)
(0.313124 -1.84723 0)
(0.58088 -1.63291 0)
(0.890993 -1.33983 0)
(1.17833 -1.04339 0)
(1.4155 -0.789931 0)
(1.63545 -0.606556 0)
(1.76965 -0.476488 0)
(1.87417 -0.365134 0)
(1.96499 -0.22893 0)
(2.05367 -0.0385584 0)
(2.09634 0.202977 0)
(2.07796 0.49911 0)
(1.98096 0.851523 0)
(1.79485 1.26069 0)
(1.5054 1.72669 0)
(1.13308 2.24206 0)
(0.685815 2.67754 0)
(0.18702 1.83463 0)
(-0.0926499 -1.05146 0)
(-0.155045 -1.83512 0)
(-0.253486 -1.93693 0)
(-0.199405 -1.81178 0)
(-0.0367744 -1.56031 0)
(0.167065 -1.25989 0)
(0.349187 -0.963917 0)
(0.496179 -0.710131 0)
(0.509053 -0.52319 0)
(0.483388 -0.39454 0)
(0.411011 -0.263443 0)
(0.388799 -0.0726059 0)
(0.364176 0.188421 0)
(0.338469 0.51976 0)
(0.30675 0.921741 0)
(0.260873 1.38809 0)
(0.189465 1.90296 0)
(0.136743 2.45426 0)
(0.125207 2.93225 0)
(0.00804399 2.02857 0)
(-0.125 -0.899514 0)
(-0.272949 -1.64712 0)
(-0.52001 -1.84755 0)
(-0.637229 -1.84986 0)
(-0.613502 -1.69776 0)
(-0.49817 -1.43964 0)
(-0.359578 -1.1212 0)
(-0.20033 -0.77475 0)
(-0.158852 -0.472321 0)
(-0.248492 -0.265421 0)
(-0.475484 -0.116966 0)
(-0.664736 0.0525507 0)
(-0.8317 0.287671 0)
(-0.949669 0.583719 0)
(-0.993002 0.942717 0)
(-0.942755 1.36046 0)
(-0.797224 1.82917 0)
(-0.559873 2.34245 0)
(-0.249441 2.81074 0)
(-0.109055 1.9672 0)
(-0.16171 -0.695016 0)
(-0.398075 -1.33129 0)
(-0.800021 -1.58663 0)
(-1.12511 -1.70138 0)
(-1.33079 -1.67143 0)
(-1.43179 -1.50619 0)
(-1.45938 -1.22859 0)
(-1.46899 -0.858424 0)
(-1.45019 -0.46303 0)
(-1.50224 -0.128477 0)
(-1.67207 0.0947392 0)
(-1.88828 0.259734 0)
(-2.04298 0.442344 0)
(-2.12491 0.64486 0)
(-2.07596 0.880777 0)
(-1.87181 1.16309 0)
(-1.52668 1.50958 0)
(-1.05038 1.94643 0)
(-0.496618 2.40588 0)
(-0.1884 1.72603 0)
(-0.187627 -0.432715 0)
(-0.482252 -0.894657 0)
(-0.993359 -1.14603 0)
(-1.49551 -1.31307 0)
(-1.92904 -1.36903 0)
(-2.29256 -1.30139 0)
(-2.55707 -1.11012 0)
(-2.72361 -0.810821 0)
(-2.76566 -0.439307 0)
(-2.81297 -0.0664804 0)
(-2.84857 0.219428 0)
(-2.98418 0.392086 0)
(-3.00597 0.504915 0)
(-2.94065 0.588953 0)
(-2.7341 0.667633 0)
(-2.364 0.784658 0)
(-1.85327 0.997883 0)
(-1.23415 1.36653 0)
(-0.577432 1.8423 0)
(-0.218155 1.39128 0)
(-0.198647 -0.145984 0)
(-0.501996 -0.401562 0)
(-1.03847 -0.619479 0)
(-1.58343 -0.795759 0)
(-2.07626 -0.896554 0)
(-2.52174 -0.908372 0)
(-2.88021 -0.824053 0)
(-3.13991 -0.642158 0)
(-3.25993 -0.358941 0)
(-3.30061 -0.032957 0)
(-3.26593 0.25245 0)
(-3.26855 0.408206 0)
(-3.1868 0.43034 0)
(-3.00082 0.38913 0)
(-2.69478 0.322555 0)
(-2.26015 0.298079 0)
(-1.72643 0.409229 0)
(-1.11755 0.74487 0)
(-0.500301 1.27003 0)
(-0.19706 1.06717 0)
(-0.203958 0.139128 0)
(-0.495417 0.0967607 0)
(-1.02689 -0.0932972 0)
(-1.5593 -0.278943 0)
(-2.03437 -0.41507 0)
(-2.4732 -0.491242 0)
(-2.83776 -0.498228 0)
(-3.10781 -0.429398 0)
(-3.25764 -0.268711 0)
(-3.2476 -0.0395498 0)
(-3.18195 0.183688 0)
(-3.02142 0.302919 0)
(-2.86075 0.267666 0)
(-2.63638 0.123193 0)
(-2.32289 -0.058905 0)
(-1.91814 -0.182538 0)
(-1.44675 -0.134913 0)
(-0.917434 0.193155 0)
(-0.385808 0.784404 0)
(-0.161868 0.818871 0)
(-0.205662 0.414936 0)
(-0.474213 0.588952 0)
(-0.994032 0.417964 0)
(-1.51307 0.208812 0)
(-1.96132 0.0346367 0)
(-2.37752 -0.0989868 0)
(-2.72827 -0.186209 0)
(-2.99498 -0.2208 0)
(-3.15735 -0.192128 0)
(-3.16556 -0.0913742 0)
(-3.05043 0.0280575 0)
(-2.83113 0.0913949 0)
(-2.58545 0.0378484 0)
(-2.30664 -0.141681 0)
(-2.04316 -0.389877 0)
(-1.71055 -0.589854 0)
(-1.32289 -0.596568 0)
(-0.860272 -0.282808 0)
(-0.364557 0.364682 0)
(-0.15711 0.624235 0)
(-0.193242 0.669062 0)
(-0.442246 1.05588 0)
(-0.912531 0.920022 0)
(-1.44474 0.693534 0)
(-1.90856 0.475422 0)
(-2.34015 0.282417 0)
(-2.70472 0.121144 0)
(-2.98892 -0.00442113 0)
(-3.17801 -0.0918604 0)
(-3.24906 -0.134915 0)
(-3.16001 -0.146317 0)
(-2.96134 -0.170521 0)
(-2.65933 -0.256903 0)
(-2.3471 -0.428848 0)
(-2.03448 -0.673493 0)
(-1.75054 -0.913171 0)
(-1.42939 -0.991767 0)
(-0.992265 -0.737742 0)
(-0.465364 -0.0761692 0)
(-0.196251 0.403999 0)
(-0.18511 0.9023 0)
(-0.392189 1.48479 0)
(-0.813335 1.39804 0)
(-1.33027 1.19662 0)
(-1.82667 0.960339 0)
(-2.32128 0.711562 0)
(-2.75091 0.468878 0)
(-3.08854 0.253351 0)
(-3.3326 0.0660615 0)
(-3.47257 -0.104548 0)
(-3.48598 -0.260871 0)
(-3.35105 -0.411966 0)
(-3.08244 -0.574786 0)
(-2.74508 -0.77293 0)
(-2.36115 -1.0019 0)
(-2.00302 -1.23207 0)
(-1.64282 -1.36214 0)
(-1.21166 -1.21055 0)
(-0.621664 -0.601295 0)
(-0.256656 0.0956142 0)
(-0.203785 1.12312 0)
(-0.399912 1.86125 0)
(-0.791831 1.83954 0)
(-1.25954 1.69748 0)
(-1.75242 1.48396 0)
(-2.26504 1.20992 0)
(-2.74912 0.89417 0)
(-3.1593 0.582836 0)
(-3.46588 0.299273 0)
(-3.67973 0.0199101 0)
(-3.78431 -0.271546 0)
(-3.75558 -0.570764 0)
(-3.58115 -0.865359 0)
(-3.25163 -1.1486 0)
(-2.85056 -1.42009 0)
(-2.37894 -1.65756 0)
(-1.90866 -1.80304 0)
(-1.36791 -1.72735 0)
(-0.751895 -1.21097 0)
(-0.307312 -0.309651 0)
(-0.218338 1.3775 0)
(-0.448738 2.23459 0)
(-0.833013 2.24352 0)
(-1.26458 2.14944 0)
(-1.69025 1.97747 0)
(-2.13174 1.70318 0)
(-2.56327 1.34671 0)
(-2.9671 0.959576 0)
(-3.28995 0.589212 0)
(-3.53753 0.216772 0)
(-3.70538 -0.189884 0)
(-3.76584 -0.626934 0)
(-3.69198 -1.07394 0)
(-3.47263 -1.50028 0)
(-3.09887 -1.87759 0)
(-2.6172 -2.18208 0)
(-2.08234 -2.36915 0)
(-1.45031 -2.32814 0)
(-0.771726 -1.87308 0)
(-0.32934 -0.769607 0)
(-0.199788 1.65005 0)
(-0.402241 2.61505 0)
(-0.738256 2.62448 0)
(-1.05994 2.53211 0)
(-1.33165 2.35756 0)
(-1.59036 2.07504 0)
(-1.85495 1.69483 0)
(-2.10504 1.27376 0)
(-2.33806 0.857755 0)
(-2.53448 0.430649 0)
(-2.7134 -0.0474182 0)
(-2.85144 -0.583434 0)
(-2.90951 -1.15623 0)
(-2.85232 -1.72847 0)
(-2.66509 -2.25253 0)
(-2.33547 -2.6722 0)
(-1.88765 -2.93674 0)
(-1.33849 -2.96539 0)
(-0.693917 -2.53766 0)
(-0.296063 -1.22096 0)
(-0.146153 1.85084 0)
(-0.200753 2.87959 0)
(-0.303866 2.85627 0)
(-0.330972 2.72513 0)
(-0.295049 2.523 0)
(-0.249548 2.23619 0)
(-0.257506 1.85603 0)
(-0.327399 1.43769 0)
(-0.409235 1.03624 0)
(-0.525791 0.617788 0)
(-0.703719 0.136156 0)
(-0.918422 -0.431026 0)
(-1.13624 -1.07415 0)
(-1.30749 -1.74873 0)
(-1.39817 -2.39793 0)
(-1.38344 -2.9548 0)
(-1.24271 -3.33268 0)
(-0.913855 -3.45026 0)
(-0.513323 -3.09807 0)
(-0.221192 -1.6067 0)
(-0.0824674 1.94286 0)
(0.0114324 2.9022 0)
(0.166965 2.7473 0)
(0.488343 2.52034 0)
(0.924039 2.29892 0)
(1.31829 2.05245 0)
(1.62893 1.76092 0)
(1.7739 1.42214 0)
(1.88898 1.08011 0)
(1.9455 0.731369 0)
(1.90646 0.330436 0)
(1.74759 -0.167986 0)
(1.46893 -0.77574 0)
(1.0903 -1.46878 0)
(0.684468 -2.18594 0)
(0.304891 -2.85063 0)
(-0.00977351 -3.36438 0)
(-0.139813 -3.60617 0)
(-0.123666 -3.37914 0)
(-0.119084 -1.85002 0)
(0.0129761 1.92025 0)
(0.369803 2.67487 0)
(0.816117 2.35846 0)
(1.37893 2.00864 0)
(2.0199 1.75354 0)
(2.65635 1.56005 0)
(3.17674 1.36182 0)
(3.6413 1.13015 0)
(4.02371 0.875777 0)
(4.32403 0.62242 0)
(4.51118 0.350629 0)
(4.54012 0.0121157 0)
(4.36742 -0.434086 0)
(3.99332 -0.988096 0)
(3.42224 -1.62295 0)
(2.70703 -2.27833 0)
(1.91164 -2.85435 0)
(1.16889 -3.21574 0)
(0.554994 -3.15301 0)
(0.0789902 -1.81715 0)
(0.337733 1.48615 0)
(1.23868 1.95638 0)
(2.21561 1.62084 0)
(3.07253 1.2697 0)
(3.85066 1.01746 0)
(4.59291 0.858149 0)
(5.23179 0.711883 0)
(5.78676 0.552679 0)
(6.27045 0.390134 0)
(6.65275 0.241801 0)
(6.9271 0.106945 0)
(7.06965 -0.0441862 0)
(7.01585 -0.258503 0)
(6.70385 -0.566427 0)
(6.11611 -0.96375 0)
(5.23707 -1.41653 0)
(4.07721 -1.85161 0)
(2.75753 -2.1634 0)
(1.39031 -2.18928 0)
(0.372201 -1.3003 0)
(0.742567 0.646787 0)
(1.74387 0.801712 0)
(2.98205 0.63888 0)
(3.93787 0.466554 0)
(4.67751 0.333607 0)
(5.26458 0.247483 0)
(5.75931 0.181131 0)
(6.12668 0.10803 0)
(6.39472 0.0410858 0)
(6.55525 -0.0155467 0)
(6.63196 -0.0616174 0)
(6.6299 -0.104923 0)
(6.53314 -0.159767 0)
(6.29368 -0.244292 0)
(5.84612 -0.367364 0)
(5.13229 -0.520889 0)
(4.12672 -0.680659 0)
(2.88959 -0.802634 0)
(1.53927 -0.826177 0)
(0.638774 -0.521791 0)
)
;

boundaryField
{
    movingWall
    {
        type            fixedValue;
        value           uniform (1 0 0);
    }
    fixedWalls
    {
        type            noSlip;
    }
    frontAndBack
    {
        type            empty;
    }
}


// ************************************************************************* //
